LAMMPS data file via write_data, version 31 Mar 2017, timestep = 0

5821 atoms
9 atom types

-1.3359960869323809e+01 1.3359960869323809e+01 xlo xhi
-1.3359960869323809e+01 1.3359960869323809e+01 ylo yhi
-3.6071894347193513e+01 3.6071894347193513e+01 zlo zhi

Atoms # sphere

3007 1 6.2000000000000002e+00 2.0000000000000000e-03 -1.0833335343670663e+01 -9.4435572947509172e+00 -3.4622118401532781e+01 0 0 0
3640 1 6.2000000000000002e+00 2.0000000000000000e-03 -1.2583524293004466e+01 -1.2510230730008027e+01 -3.4572423518550558e+01 0 0 0
404 1 6.2000000000000002e+00 2.0000000000000000e-03 -9.9561661473139633e+00 -9.0991588871620763e+00 -3.3009676782871580e+01 0 0 0
3742 1 6.2000000000000002e+00 2.0000000000000000e-03 -1.1984933326205123e+01 -1.1516825986370183e+01 -3.3655040410699648e+01 0 0 0
524 1 6.2000000000000002e+00 2.0000000000000000e-03 -1.0054593045798523e+01 -1.0748459002549982e+01 -3.1876707695294314e+01 0 0 0
5661 1 6.2000000000000002e+00 2.0000000000000000e-03 -6.8641238948728818e+00 -1.0485622426789817e+01 -3.1655012734845297e+01 0 0 0
2559 1 6.2000000000000002e+00 2.0000000000000000e-03 -8.3320045557572797e+00 -9.4709196702461860e+00 -3.1300596913072258e+01 0 0 0
1826 1 6.2000000000000002e+00 2.0000000000000000e-03 -6.2399861796315426e+00 -8.8160211006317155e+00 -2.9644657307373500e+01 0 0 0
2804 1 6.2000000000000002e+00 2.0000000000000000e-03 -1.2364094376067790e+01 -9.7791799663883019e+00 -3.0897222367856561e+01 0 0 0
5321 1 6.2000000000000002e+00 2.0000000000000000e-03 -8.6299968223379331e+00 -8.2191851508843090e+00 -3.0437168296556660e+01 0 0 0
4816 1 6.2000000000000002e+00 2.0000000000000000e-03 -8.2316029787571132e+00 -1.0111999296168584e+01 -3.3569853842793272e+01 0 0 0
5462 1 6.2000000000000002e+00 2.0000000000000000e-03 -1.2061642100551506e+01 -1.0104683508873602e+01 -3.2261324567984651e+01 1 0 0
898 1 6.2000000000000002e+00 2.0000000000000000e-03 -1.2856942780154991e+01 -9.9665827054536642e+00 -3.4269059634147759e+01 1 0 0
4364 1 6.2000000000000002e+00 2.0000000000000000e-03 -9.9902366480138571e+00 -1.1211431016389506e+01 -3.4898713976490150e+01 0 0 0
982 1 6.2000000000000002e+00 2.0000000000000000e-03 -9.2333542261426267e+00 -1.1925669851873570e+01 -3.2453197982666822e+01 0 1 0
2631 1 6.2000000000000002e+00 2.0000000000000000e-03 -7.8359799075336110e+00 -1.2009841879057053e+01 -3.0523193928665645e+01 0 0 0
903 1 6.2000000000000002e+00 2.0000000000000000e-03 -1.1899191004293975e+01 -1.1851359139856221e+01 -3.0834087650488602e+01 0 0 0
1626 1 6.2000000000000002e+00 2.0000000000000000e-03 -1.3283116462352393e+01 -8.5976095931974044e+00 -3.3048483166833329e+01 1 0 0
5090 1 6.2000000000000002e+00 2.0000000000000000e-03 -7.6588982104948107e+00 -1.2094132407022940e+01 -3.3804576699939688e+01 0 0 0
1094 1 6.2000000000000002e+00 2.0000000000000000e-03 -9.4952412758830675e+00 -1.0271920741070568e+01 -3.0066729861770742e+01 0 0 0
4271 1 6.2000000000000002e+00 2.0000000000000000e-03 -7.4920703047721142e+00 -1.0514539847259867e+01 -2.9044676495816937e+01 0 0 0
1967 1 6.2000000000000002e+00 2.0000000000000000e-03 -6.8234208699999073e+00 -1.1245806577060481e+01 -3.5847974405606521e+01 0 0 0
1062 1 6.2000000000000002e+00 2.0000000000000000e-03 -6.0550637953383779e+00 -1.1232291768282231e+01 -3.3773250720912877e+01 0 0 0
4200 1 6.2000000000000002e+00 2.0000000000000000e-03 -5.9766259090019034e+00 -8.5255341665755999e+00 -3.1801482687074401e+01 0 0 0
4325 1 6.2000000000000002e+00 2.0000000000000000e-03 -4.6119901209883949e+00 -9.9546085247647316e+00 -3.1247695624636545e+01 0 0 0
4566 1 6.2000000000000002e+00 2.0000000000000000e-03 -5.7722553568266628e+00 -9.0832198129912793e+00 -3.3826386257710205e+01 0 0 0
3322 1 6.2000000000000002e+00 2.0000000000000000e-03 -5.2455432949930412e+00 -1.1764424418523191e+01 -3.0085096130625040e+01 0 0 0
3100 1 6.2000000000000002e+00 2.0000000000000000e-03 -5.3058207488951510e+00 -9.7556704952837450e+00 -2.9395003681020484e+01 0 0 0
4659 1 6.2000000000000002e+00 2.0000000000000000e-03 -1.2624912313472569e+01 -1.1509024200969355e+01 -2.9259566189219072e+01 0 1 0
3697 1 6.2000000000000002e+00 2.0000000000000000e-03 -1.1062974411401484e+01 -8.8307345931590948e+00 -2.9710454047094572e+01 0 0 0
2128 1 6.2000000000000002e+00 2.0000000000000000e-03 -8.6641760586648342e+00 -1.2800071877976173e+01 -3.5091896244377409e+01 0 1 0
2567 1 6.2000000000000002e+00 2.0000000000000000e-03 -7.9816461188467818e+00 -9.9400966600511644e+00 -3.5491628515041874e+01 0 0 1
731 1 6.2000000000000002e+00 2.0000000000000000e-03 -1.1830276535546282e+01 -1.2775747615713959e+01 -3.1944297089290625e+01 1 1 0
5549 1 6.2000000000000002e+00 2.0000000000000000e-03 -1.0406672628607291e+01 -1.2317301083014451e+01 -2.9994455957155431e+01 0 0 0
3989 1 6.2000000000000002e+00 2.0000000000000000e-03 -7.6930096740430951e+00 -1.2582992620798420e+01 -2.5625656496700291e+01 0 1 0
578 1 6.2000000000000002e+00 2.0000000000000000e-03 -5.1825481862258886e+00 -1.3052083202076817e+01 -2.3177816346607635e+01 0 0 0
1650 1 6.2000000000000002e+00 2.0000000000000000e-03 -8.8287100159477667e+00 -1.1975657025875581e+01 -2.8653276883995893e+01 0 1 0
5711 5 3.5000000000000000e+00 4.6500000000000004e+00 -1.0720058246764580e+01 -1.0531136496652177e+01 -2.8278432212721171e+01 1 0 0
4462 1 6.2000000000000002e+00 2.0000000000000000e-03 -1.0933756656799053e+01 -1.1253045727751154e+01 -2.6153816256778995e+01 0 0 0
4349 1 6.2000000000000002e+00 2.0000000000000000e-03 -1.2087051231467955e+01 -1.2741208044152856e+01 -2.7075507816422636e+01 0 0 0
3052 1 6.2000000000000002e+00 2.0000000000000000e-03 -9.7407429628768618e+00 -9.3590320165643170e+00 -2.6435454341973745e+01 0 0 0
2503 1 6.2000000000000002e+00 2.0000000000000000e-03 -8.6714770850809053e+00 -9.5275553703568345e+00 -2.8136304372710477e+01 0 0 0
3690 1 6.2000000000000002e+00 2.0000000000000000e-03 -9.8997515910547058e+00 -1.2568695334212345e+01 -2.5110280553688419e+01 0 0 0
4454 1 6.2000000000000002e+00 2.0000000000000000e-03 -1.2970341942640191e+01 -1.1538026687733268e+01 -2.5661458269671432e+01 0 0 0
1154 1 6.2000000000000002e+00 2.0000000000000000e-03 -1.1524657587177037e+01 -1.0019925808594909e+01 -2.4747272904755079e+01 0 0 0
1979 1 6.2000000000000002e+00 2.0000000000000000e-03 -1.1942256324639008e+01 -1.2061447258775541e+01 -2.3962210417573399e+01 0 0 0
5535 1 6.2000000000000002e+00 2.0000000000000000e-03 -1.2619594525378536e+01 -1.0773978124583607e+01 -2.2714161380630447e+01 0 0 0
5424 1 6.2000000000000002e+00 2.0000000000000000e-03 -9.7460980660413021e+00 -1.0082801638398243e+01 -2.4281068527562262e+01 0 0 0
821 1 6.2000000000000002e+00 2.0000000000000000e-03 1.2713131323500699e+01 -1.0356836066075648e+01 -2.5882949104828938e+01 0 0 0
1153 1 6.2000000000000002e+00 2.0000000000000000e-03 -9.0090297929872349e+00 -1.1290934442001316e+01 -2.6581907789978267e+01 0 1 0
241 1 6.2000000000000002e+00 2.0000000000000000e-03 -9.9966304423617771e+00 -1.1851924432790780e+01 -2.3053038023293254e+01 0 1 0
3412 1 6.2000000000000002e+00 2.0000000000000000e-03 -8.0248587916892724e+00 -1.0365136513452111e+01 -2.3953556733361498e+01 0 0 0
740 1 6.2000000000000002e+00 2.0000000000000000e-03 -1.0210851236951662e+01 -8.3010523376728464e+00 -2.7808801329986487e+01 0 0 0
3422 1 6.2000000000000002e+00 2.0000000000000000e-03 -7.4380160637329089e+00 -1.0268916457945741e+01 -2.6034120548629801e+01 0 1 0
2860 1 6.2000000000000002e+00 2.0000000000000000e-03 -7.3266927324963698e+00 -8.0231183768454635e+00 -2.6853905232010796e+01 0 0 0
902 1 6.2000000000000002e+00 2.0000000000000000e-03 -7.5449784928727395e+00 -1.2586296018730712e+01 -2.7687898850736431e+01 0 0 0
5067 1 6.2000000000000002e+00 2.0000000000000000e-03 -7.2392000401219310e+00 -8.3936059176513531e+00 -2.4960910518201626e+01 0 0 0
5078 1 6.2000000000000002e+00 2.0000000000000000e-03 -7.7503169996046610e+00 -1.2118709437485643e+01 -2.3657253682175373e+01 0 1 0
1654 1 6.2000000000000002e+00 2.0000000000000000e-03 -1.2131691220195835e+01 -9.5629111755947456e+00 -2.6969483969798262e+01 1 0 0
733 1 6.2000000000000002e+00 2.0000000000000000e-03 -1.0558207908193605e+01 -1.0020055675755575e+01 -2.2107300340246930e+01 0 0 0
861 1 6.2000000000000002e+00 2.0000000000000000e-03 -6.1130009813510515e+00 -8.8150956953485711e+00 -2.2892994450438380e+01 0 0 0
695 1 6.2000000000000002e+00 2.0000000000000000e-03 -6.2855253083674896e+00 -1.0121852261021628e+01 -2.7066479158947267e+01 0 0 0
198 1 6.2000000000000002e+00 2.0000000000000000e-03 -5.9466299345301703e+00 -1.2054224098400780e+01 -2.8414831816916031e+01 0 0 0
4851 1 6.2000000000000002e+00 2.0000000000000000e-03 -5.1422135535251705e+00 -8.2826307133156654e+00 -2.7651915161129601e+01 0 0 0
760 1 6.2000000000000002e+00 2.0000000000000000e-03 -5.6923406366532499e+00 -1.1480216037337581e+01 -2.5019345867681679e+01 0 0 0
910 1 6.2000000000000002e+00 2.0000000000000000e-03 -5.6589512238062181e+00 -1.0044608557085104e+01 -2.3996521401671469e+01 0 0 0
40 1 6.2000000000000002e+00 2.0000000000000000e-03 -5.4302669761646305e+00 -1.0504628715647499e+01 -2.1876287812975697e+01 0 0 0
4605 1 6.2000000000000002e+00 2.0000000000000000e-03 -5.9378779224364191e+00 -1.2979654029874625e+01 -2.6303887619668224e+01 0 1 0
388 1 6.2000000000000002e+00 2.0000000000000000e-03 -1.0682654469360802e+01 -1.2667793399078453e+01 -2.7931591233293858e+01 1 1 0
4641 1 6.2000000000000002e+00 2.0000000000000000e-03 -4.3857643554056374e+00 -9.4325565355545020e+00 -2.5631437747751690e+01 0 0 0
1572 1 6.2000000000000002e+00 2.0000000000000000e-03 -7.0698851382165628e+00 -1.1691574068339470e+01 -2.2158676339965432e+01 0 0 0
1993 1 6.2000000000000002e+00 2.0000000000000000e-03 -1.0464818587770173e+01 -8.3260193604760140e+00 -2.2971667259121695e+01 0 0 0
5201 1 6.2000000000000002e+00 2.0000000000000000e-03 -1.2487616107323502e+01 -8.5966988453508115e+00 -2.4868907165399918e+01 1 0 0
3253 1 6.2000000000000002e+00 2.0000000000000000e-03 -8.0261548619731311e+00 -9.6015435000724239e+00 -2.1705646448609809e+01 0 0 0
3843 1 6.2000000000000002e+00 2.0000000000000000e-03 6.3056555265340197e+00 -8.2472900276056649e+00 -2.4157244615863444e+01 0 0 0
161 1 6.2000000000000002e+00 2.0000000000000000e-03 -1.2916832436300609e+01 -8.3781519457513944e+00 -3.5742496900762269e+01 0 0 0
5724 5 3.5000000000000000e+00 4.6500000000000004e+00 -1.0505172052483367e+01 -1.3172433253552006e+01 -3.3834985811068044e+01 0 1 0
1209 1 6.2000000000000002e+00 2.0000000000000000e-03 -5.4182199624476670e+00 -1.1941521264399855e+01 -3.2445797320628500e+01 0 0 0
12 1 6.2000000000000002e+00 2.0000000000000000e-03 -7.8795145296448279e+00 -8.1645781895715714e+00 -3.3399229598917671e+01 0 0 0
5270 1 6.2000000000000002e+00 2.0000000000000000e-03 -1.3157687215567231e+01 -1.0319267084082682e+01 -2.8891770249251945e+01 1 0 0
1184 1 6.2000000000000002e+00 2.0000000000000000e-03 -5.1547366335057099e+00 -8.1843726130881738e+00 -2.4920623761765803e+01 0 0 0
1813 1 6.2000000000000002e+00 2.0000000000000000e-03 -8.4778120153544911e+00 -8.3662949562030207e+00 -2.3128214162033753e+01 0 0 0
1838 1 6.2000000000000002e+00 2.0000000000000000e-03 -1.1183139007344835e+01 -1.2839294234232696e+01 -2.1701901237926233e+01 0 1 0
5327 1 6.2000000000000002e+00 2.0000000000000000e-03 -1.4925929254125787e+00 -1.3138445884859156e+01 -2.6685620668112630e+01 0 1 0
2625 1 6.2000000000000002e+00 2.0000000000000000e-03 -4.1262729242778491e+00 -1.0989994903502517e+01 -3.4380074230774071e+01 0 0 0
2909 1 6.2000000000000002e+00 2.0000000000000000e-03 -3.6508203912380690e+00 -1.2782552258036981e+01 -2.9340202271619191e+01 0 0 0
3748 1 6.2000000000000002e+00 2.0000000000000000e-03 -3.6793935696044215e+00 -9.4537742335048982e+00 -3.2193507360105457e+01 0 0 0
5715 5 3.5000000000000000e+00 4.6500000000000004e+00 -2.7082543027844803e+00 -1.1383357811334287e+01 -3.0945076917527903e+01 0 0 0
5025 1 6.2000000000000002e+00 2.0000000000000000e-03 -3.2870649642004786e+00 -1.1619540095439097e+01 -3.3413140324907459e+01 0 0 0
184 1 6.2000000000000002e+00 2.0000000000000000e-03 -1.5529902974143024e+00 -1.0294891046735483e+01 -3.2971067466484513e+01 0 0 0
4492 1 6.2000000000000002e+00 2.0000000000000000e-03 -1.7825402916912303e-01 -1.1349736031776088e+01 -3.0495102875855011e+01 0 0 0
3469 1 6.2000000000000002e+00 2.0000000000000000e-03 -1.8618497176617055e+00 -9.6755812812947894e+00 -2.9960787375308627e+01 0 0 0
2543 1 6.2000000000000002e+00 2.0000000000000000e-03 -1.4559091015118906e+00 -1.3210204228922931e+01 -3.0484133451082979e+01 0 0 0
4040 1 6.2000000000000002e+00 2.0000000000000000e-03 -1.6592025142988174e+00 -1.1809713631132785e+01 -2.8917777560793034e+01 0 0 0
290 1 6.2000000000000002e+00 2.0000000000000000e-03 -3.5028683594262269e+00 -1.0210635185763834e+01 -2.9327771058655273e+01 0 0 0
5454 1 6.2000000000000002e+00 2.0000000000000000e-03 -2.4242957756216867e+00 -1.2534612466248051e+01 -3.2925120602410736e+01 0 1 0
1937 1 6.2000000000000002e+00 2.0000000000000000e-03 -1.5863820831841320e+00 -8.9922522582438162e+00 -3.1510276093476804e+01 0 0 0
2962 1 6.2000000000000002e+00 2.0000000000000000e-03 4.5330828128204459e-01 -8.3873430556891186e+00 -3.1522475449218049e+01 0 0 0
985 1 6.2000000000000002e+00 2.0000000000000000e-03 -1.2921812839326741e-01 -1.0961027934924706e+01 -3.2605150104108930e+01 0 0 0
1022 1 6.2000000000000002e+00 2.0000000000000000e-03 -4.3020818267484273e-02 -9.1278181220357624e+00 -3.3644110484175393e+01 0 0 0
2668 1 6.2000000000000002e+00 2.0000000000000000e-03 -4.6074346215505813e-01 -1.2569327400766872e+01 -3.2511602520205088e+01 0 0 0
584 1 6.2000000000000002e+00 2.0000000000000000e-03 2.5488117573398110e+00 -1.1575593303110592e+01 -3.0759947406558609e+01 0 0 0
1507 1 6.2000000000000002e+00 2.0000000000000000e-03 1.5093448482883076e+00 -9.7856556941900052e+00 -3.1033717251912233e+01 0 0 0
1675 1 6.2000000000000002e+00 2.0000000000000000e-03 1.5068865038825692e+00 -9.4210354287559763e+00 -2.8706991666972613e+01 0 0 0
5152 1 6.2000000000000002e+00 2.0000000000000000e-03 1.7905338716979013e+00 -1.0746233324755684e+01 -3.3513552102243125e+01 0 0 0
3614 1 6.2000000000000002e+00 2.0000000000000000e-03 2.0095417684135626e+00 -9.7571391649152197e+00 -3.4378373841486123e+01 0 0 0
3423 1 6.2000000000000002e+00 2.0000000000000000e-03 2.8303081284791620e+00 -8.5894501595626984e+00 -3.0073118313963242e+01 0 0 0
1520 1 6.2000000000000002e+00 2.0000000000000000e-03 1.6821241077047624e+00 -1.2051131968950688e+01 -3.3175557765560306e+01 0 1 0
4453 1 6.2000000000000002e+00 2.0000000000000000e-03 8.1994572619779049e-02 -1.0538302415226745e+01 -2.9213379175430802e+01 0 0 0
5501 1 6.2000000000000002e+00 2.0000000000000000e-03 2.3419699887862038e+00 -9.2814180999953475e+00 -3.5568723650657653e+01 0 0 0
3988 1 6.2000000000000002e+00 2.0000000000000000e-03 1.1856001897660171e+00 -1.2990540790672133e+01 -3.0438194005518813e+01 0 0 0
5284 1 6.2000000000000002e+00 2.0000000000000000e-03 1.1717186268626785e+01 -1.1114592293096763e+01 -2.3600685292870306e+01 0 0 0
931 1 6.2000000000000002e+00 2.0000000000000000e-03 1.4296113082859421e+00 -8.3913714415772596e+00 -3.5725866095651931e+01 0 0 1
452 1 6.2000000000000002e+00 2.0000000000000000e-03 4.2179881535017660e+00 -1.1147126743797983e+01 -3.2134189470636500e+01 0 0 0
4306 1 6.2000000000000002e+00 2.0000000000000000e-03 4.1525443783461409e+00 -9.2520081430254706e+00 -3.0917226114828459e+01 0 0 0
4359 1 6.2000000000000002e+00 2.0000000000000000e-03 -4.1762426490827540e+00 -1.2984677880897483e+01 -3.1625464696955525e+01 0 0 0
3880 1 6.2000000000000002e+00 2.0000000000000000e-03 2.3785987464582092e-01 -1.2844134161416523e+01 -2.8572948855844182e+01 0 1 0
1524 1 6.2000000000000002e+00 2.0000000000000000e-03 2.6379498882915797e+00 -8.2067263055563853e+00 -3.2586977926394027e+01 0 0 0
1638 1 6.2000000000000002e+00 2.0000000000000000e-03 -2.6612736222689168e+00 -9.2639827713078944e+00 -3.4092660313111480e+01 0 0 0
3841 1 6.2000000000000002e+00 2.0000000000000000e-03 3.8514095470272398e+00 -1.2978500012772161e+01 -2.7450372926995012e+01 0 1 0
4983 1 6.2000000000000002e+00 2.0000000000000000e-03 -1.4717654399554103e+00 -8.4027910782346318e+00 -2.8459341431202400e+01 0 0 0
927 1 6.2000000000000002e+00 2.0000000000000000e-03 -4.0388088486751172e+00 -1.2487038784816010e+01 -2.6235735589406019e+01 0 1 0
1703 1 6.2000000000000002e+00 2.0000000000000000e-03 -2.9602031904685191e+00 -1.2625815412012665e+01 -2.7913890994846717e+01 0 0 0
5149 1 6.2000000000000002e+00 2.0000000000000000e-03 3.2748054253506549e+00 -1.0873664789893587e+01 -2.9395678064168493e+01 0 0 0
3274 1 6.2000000000000002e+00 2.0000000000000000e-03 -2.5466456377489166e+00 -1.1853087891057770e+01 -2.2472916277157388e+01 0 0 0
4088 1 6.2000000000000002e+00 2.0000000000000000e-03 -3.2407882452647119e+00 -9.4507242664557225e+00 -2.8061140540790579e+01 0 0 0
5769 7 5.8600000000000003e+00 4.6500000000000004e+00 -3.0949541471533930e+00 -8.9419318907797702e+00 -2.2907848672289681e+01 0 0 0
1519 1 6.2000000000000002e+00 2.0000000000000000e-03 -3.1695196667690499e+00 -1.0589841944706103e+01 -2.5484491658282245e+01 0 0 0
511 1 6.2000000000000002e+00 2.0000000000000000e-03 -4.2592010047032804e+00 -1.1628406047972774e+01 -2.3572174813916590e+01 0 0 0
2615 1 6.2000000000000002e+00 2.0000000000000000e-03 -7.5791712549991885e-01 -9.1846372501144788e+00 -2.4745036793992377e+01 0 0 0
2066 1 6.2000000000000002e+00 2.0000000000000000e-03 -4.4461511458573160e+00 -1.1076024273727114e+01 -2.7495789467460092e+01 0 0 0
112 1 6.2000000000000002e+00 2.0000000000000000e-03 -1.4404919566731529e+00 -1.0823078677458067e+01 -2.7326998811349846e+01 0 0 0
2121 1 6.2000000000000002e+00 2.0000000000000000e-03 -9.2011004384074546e-01 -1.2142795003824661e+01 -2.5335341515442266e+01 0 0 0
833 1 6.2000000000000002e+00 2.0000000000000000e-03 -2.5575565281062698e+00 -1.1540328170790637e+01 -2.4342462514213643e+01 0 0 0
2262 1 6.2000000000000002e+00 2.0000000000000000e-03 -1.9185791223553270e+00 -9.3521947679727191e+00 -2.5654508056878591e+01 0 0 0
22 1 6.2000000000000002e+00 2.0000000000000000e-03 -9.1665640400329806e-01 -1.0875455266957079e+01 -2.2307808929381551e+01 0 0 0
806 1 6.2000000000000002e+00 2.0000000000000000e-03 6.3273658445999637e-01 -1.1703487636693325e+01 -2.6783119018627932e+01 0 0 0
3341 1 6.2000000000000002e+00 2.0000000000000000e-03 2.6110861106656849e+00 -1.2568402106789614e+01 -2.2024639403657403e+01 0 1 0
3297 1 6.2000000000000002e+00 2.0000000000000000e-03 -7.2426290111215863e-01 -1.0666152565442751e+01 -2.3781791568494015e+01 0 0 0
4150 1 6.2000000000000002e+00 2.0000000000000000e-03 1.8538219585302542e+00 -8.8001047178993943e+00 -2.1643639926471678e+01 0 0 0
5720 5 3.5000000000000000e+00 4.6500000000000004e+00 1.2394820678964766e+00 -9.3486990315611749e+00 -2.3723170536833877e+01 0 0 0
1931 1 6.2000000000000002e+00 2.0000000000000000e-03 -1.0304703144066174e-01 -9.0824555187087164e+00 -2.7378266835225997e+01 0 0 0
5107 1 6.2000000000000002e+00 2.0000000000000000e-03 6.6737697320747991e-01 -1.0409644154035810e+01 -2.5727525596153747e+01 0 0 0
2964 1 6.2000000000000002e+00 2.0000000000000000e-03 1.6019724490873237e+00 -9.0378036791024776e+00 -2.6274375664432192e+01 0 0 0
1771 1 6.2000000000000002e+00 2.0000000000000000e-03 2.7666896839216815e+00 -1.0344817917240539e+01 -2.4992011892298045e+01 0 0 0
4508 1 6.2000000000000002e+00 2.0000000000000000e-03 1.3293539910147203e+00 -1.1642683156037803e+01 -2.3775826398978168e+01 0 0 0
738 1 6.2000000000000002e+00 2.0000000000000000e-03 1.9607127497596206e+00 -1.1680876680264037e+01 -2.8314544073995442e+01 0 0 0
3977 1 6.2000000000000002e+00 2.0000000000000000e-03 3.1056286819472749e+00 -1.0861381159251920e+01 -2.6965168483428428e+01 0 0 0
5023 1 6.2000000000000002e+00 2.0000000000000000e-03 4.1240752479295448e+00 -1.2562403364973914e+01 -2.3505085303835344e+01 0 0 0
1677 1 6.2000000000000002e+00 2.0000000000000000e-03 4.4324046692125467e+00 -1.0642622160187816e+01 -2.3969857480741517e+01 0 0 0
5564 1 6.2000000000000002e+00 2.0000000000000000e-03 4.0343068959030486e+00 -9.3864877601191967e+00 -2.2457884711700942e+01 0 0 0
535 1 6.2000000000000002e+00 2.0000000000000000e-03 2.5768009689700531e+00 -1.0827005077201669e+01 -2.2757972860023841e+01 0 0 0
2334 1 6.2000000000000002e+00 2.0000000000000000e-03 1.6460369684633651e+00 -1.2611347403246581e+01 -2.5048165240816409e+01 0 1 0
1544 1 6.2000000000000002e+00 2.0000000000000000e-03 2.9255709585727185e+00 -8.6684116398892961e+00 -2.7681461817602131e+01 0 0 0
4681 1 6.2000000000000002e+00 2.0000000000000000e-03 3.2636136497399999e+00 -8.5722105264085826e+00 -2.4573662916800565e+01 0 0 0
69 1 6.2000000000000002e+00 2.0000000000000000e-03 -2.9028151572755689e-01 -8.7721182434338658e+00 -2.1701261902518414e+01 0 0 0
3552 1 6.2000000000000002e+00 2.0000000000000000e-03 3.6067110291954005e+00 -1.2376498664865027e+01 -2.5564078917334054e+01 0 0 0
1978 1 6.2000000000000002e+00 2.0000000000000000e-03 3.9012925216905892e-01 -1.2195753026578478e+01 -2.1852317829008548e+01 0 0 0
1382 1 6.2000000000000002e+00 2.0000000000000000e-03 3.7169927455293514e+00 -8.6366942535241726e+00 -3.5251626009232730e+01 0 0 1
5209 1 6.2000000000000002e+00 2.0000000000000000e-03 3.1630340983057135e+00 -1.2941987295711067e+01 -3.2235060147642400e+01 0 1 0
3526 1 6.2000000000000002e+00 2.0000000000000000e-03 -2.5960429614113867e+00 -8.2784388674607605e+00 -3.5765906383213327e+01 0 0 0
1608 1 6.2000000000000002e+00 2.0000000000000000e-03 3.8834311943638031e+00 -9.7843950017811796e+00 -3.2950780315636614e+01 0 0 0
5797 8 8.2799999999999994e+00 4.6500000000000004e+00 4.3651376297937237e+00 -1.2258813311885044e+01 -3.5774448491014944e+01 0 0 1
688 1 6.2000000000000002e+00 2.0000000000000000e-03 -8.3807190527864250e-01 -8.0812438662451278e+00 -3.4789852982193132e+01 0 0 0
677 1 6.2000000000000002e+00 2.0000000000000000e-03 -3.7354981897337112e+00 -9.0517604104391189e+00 -3.5929162278145213e+01 0 0 1
3710 1 6.2000000000000002e+00 2.0000000000000000e-03 7.4866991443032145e+00 -1.2735799831324814e+01 -2.1754777852904038e+01 0 0 0
729 1 6.2000000000000002e+00 2.0000000000000000e-03 1.2860522537211560e+01 -1.2448947551797529e+01 -2.2105836092926179e+01 0 0 0
4208 1 6.2000000000000002e+00 2.0000000000000000e-03 1.1629185014012046e+01 -8.8179230713303518e+00 -2.5181025338657008e+01 0 0 0
1701 1 6.2000000000000002e+00 2.0000000000000000e-03 4.5948184314499922e+00 -8.1061297814190070e+00 -2.5800394987968414e+01 0 0 0
3066 1 6.2000000000000002e+00 2.0000000000000000e-03 1.0373105194674098e+01 -9.4800604288997068e+00 -3.5794128337127695e+01 0 0 1
553 1 6.2000000000000002e+00 2.0000000000000000e-03 7.3157416785650344e+00 -8.2635079996572074e+00 -2.2507475503080059e+01 0 0 0
909 1 6.2000000000000002e+00 2.0000000000000000e-03 6.3940557625787857e+00 -9.3242630314833228e+00 -2.8079069012497314e+01 0 0 0
4064 1 6.2000000000000002e+00 2.0000000000000000e-03 1.2156735692422979e+01 -1.2201012128387507e+01 -2.4371407911536796e+01 0 0 0
1160 1 6.2000000000000002e+00 2.0000000000000000e-03 1.2789696138193216e+01 -1.1263338064442026e+01 -3.5757846638883002e+01 0 0 0
2626 1 6.2000000000000002e+00 2.0000000000000000e-03 1.2924973916787023e+01 -1.2125841302917324e+01 -2.8246560083057400e+01 0 1 0
3955 1 6.2000000000000002e+00 2.0000000000000000e-03 1.0515564226834096e+01 -1.0974105521346477e+01 -2.1967048634641646e+01 0 0 0
2535 1 6.2000000000000002e+00 2.0000000000000000e-03 1.2868689381682733e+01 -9.4697435066738187e+00 -2.3662766412254371e+01 0 0 0
3979 1 6.2000000000000002e+00 2.0000000000000000e-03 5.0167211126978639e+00 -1.2647464318681067e+01 -3.0702743839557321e+01 0 0 0
875 1 6.2000000000000002e+00 2.0000000000000000e-03 4.7717068933791200e+00 -1.0253768209499944e+01 -2.9018930515479891e+01 0 0 0
2448 1 6.2000000000000002e+00 2.0000000000000000e-03 5.3545511132622945e+00 -8.9113635414802026e+00 -3.4311715715717874e+01 0 0 0
5456 1 6.2000000000000002e+00 2.0000000000000000e-03 6.3197208424769311e+00 -1.0896437277920839e+01 -3.0646019652840423e+01 0 0 0
5176 1 6.2000000000000002e+00 2.0000000000000000e-03 6.1233472423778235e+00 -1.1563726227213760e+01 -3.2530197778119636e+01 0 0 0
5276 1 6.2000000000000002e+00 2.0000000000000000e-03 6.2552231010814001e+00 -1.2985139785002437e+01 -3.2606168466179803e+01 0 0 0
4902 1 6.2000000000000002e+00 2.0000000000000000e-03 6.7867912649938784e+00 -9.3274146939527114e+00 -3.1821207966047083e+01 0 0 0
1479 1 6.2000000000000002e+00 2.0000000000000000e-03 7.4781792879774205e+00 -9.1083197732388150e+00 -3.0175115945618096e+01 0 0 0
5556 1 6.2000000000000002e+00 2.0000000000000000e-03 7.3151823558040814e+00 -1.0372020437059625e+01 -3.4565244332122049e+01 0 0 0
3600 1 6.2000000000000002e+00 2.0000000000000000e-03 1.2902336026587443e+01 -8.4535255576014947e+00 -2.7124072628539853e+01 0 0 0
4410 1 6.2000000000000002e+00 2.0000000000000000e-03 1.2108326433746667e+01 -8.5835983522732420e+00 -3.4628696410460449e+01 0 0 0
1886 1 6.2000000000000002e+00 2.0000000000000000e-03 1.1883089882324763e+01 -1.0021226603280745e+01 -3.5795410071976335e+01 0 0 0
5814 9 1.0350000000000000e+01 4.6500000000000004e+00 1.0524471290022904e+01 -1.1859051917192645e+01 -3.1949876858222240e+01 0 0 0
5178 1 6.2000000000000002e+00 2.0000000000000000e-03 8.7697465406344630e+00 -8.9418259335222583e+00 -3.4888245418797958e+01 0 0 0
1162 1 6.2000000000000002e+00 2.0000000000000000e-03 -1.7601908312428804e-01 -1.3355544264789026e+01 -2.3714222164298178e+01 0 1 0
1998 1 6.2000000000000002e+00 2.0000000000000000e-03 6.5598508695643698e+00 -1.0380258148420850e+01 -3.3397645889262222e+01 0 0 1
4540 1 6.2000000000000002e+00 2.0000000000000000e-03 9.3768698993297139e+00 -1.2497435647607995e+01 -2.2998924825053798e+01 0 0 0
1211 1 6.2000000000000002e+00 2.0000000000000000e-03 7.5651995718255609e+00 -1.2792258253456641e+01 -2.8769625148288888e+01 0 0 0
5253 1 6.2000000000000002e+00 2.0000000000000000e-03 8.9406807208292403e+00 -1.2318179398614667e+01 -2.7854705549156783e+01 0 1 0
2699 1 6.2000000000000002e+00 2.0000000000000000e-03 7.1008876207755360e+00 -1.1291199561088744e+01 -2.9095469378455572e+01 0 0 0
1673 1 6.2000000000000002e+00 2.0000000000000000e-03 1.0277458587768892e+01 -1.1727657849644173e+01 -2.5163446348066792e+01 0 1 0
4211 1 6.2000000000000002e+00 2.0000000000000000e-03 1.3045320781863724e+01 -8.6693673552485055e+00 -3.0017020931800545e+01 0 0 0
4625 1 6.2000000000000002e+00 2.0000000000000000e-03 8.0446109408343940e+00 -1.1898048253538525e+01 -3.5567398617649360e+01 0 1 1
4363 1 6.2000000000000002e+00 2.0000000000000000e-03 8.9723602897901689e+00 -8.8247402604420877e+00 -2.4101475239196553e+01 0 0 0
5329 1 6.2000000000000002e+00 2.0000000000000000e-03 8.0755110298132262e+00 -8.3224167268105251e+00 -3.3260398580870152e+01 0 0 0
5127 1 6.2000000000000002e+00 2.0000000000000000e-03 1.0685169659327935e+01 -9.3195003498015296e+00 -2.2979286481344545e+01 0 0 0
1311 1 6.2000000000000002e+00 2.0000000000000000e-03 4.5643337399574282e+00 -8.0424468890299003e+00 -2.8316275914583592e+01 0 0 0
4675 1 6.2000000000000002e+00 2.0000000000000000e-03 1.1925727822089270e+01 -9.1620893479661092e+00 -2.8618360402968715e+01 0 0 0
3555 1 6.2000000000000002e+00 2.0000000000000000e-03 1.2083123165600783e+01 -1.3115308334380730e+01 -2.8105206987429362e+01 0 1 0
4298 1 6.2000000000000002e+00 2.0000000000000000e-03 1.0651838293615073e+01 -8.6920811246517253e+00 -2.8701451875711346e+01 0 0 0
2359 1 6.2000000000000002e+00 2.0000000000000000e-03 7.4505388989128658e+00 -1.1770123337398589e+01 -2.4507773759131730e+01 0 0 0
4800 1 6.2000000000000002e+00 2.0000000000000000e-03 6.7085606916903959e+00 -1.2793566206354541e+01 -2.3918013322544780e+01 0 0 0
3734 1 6.2000000000000002e+00 2.0000000000000000e-03 5.8376117549621664e+00 -1.0419791382084831e+01 -2.2284508040020906e+01 0 0 0
1223 1 6.2000000000000002e+00 2.0000000000000000e-03 5.9040429696292609e+00 -1.0217709267302682e+01 -2.4978584444619074e+01 0 0 0
1894 1 6.2000000000000002e+00 2.0000000000000000e-03 5.6500780996649222e+00 -1.1416293747318036e+01 -2.7224554345610215e+01 0 0 0
5592 1 6.2000000000000002e+00 2.0000000000000000e-03 4.6289057201886816e+00 -1.2667768955148045e+01 -2.8781947889424838e+01 0 0 0
4120 1 6.2000000000000002e+00 2.0000000000000000e-03 5.5056229398508574e+00 -1.2635882516400583e+01 -2.2369492187899780e+01 0 0 0
4037 1 6.2000000000000002e+00 2.0000000000000000e-03 1.0339257971798775e+01 -9.7986331995144837e+00 -2.5539477449402710e+01 0 0 0
3739 1 6.2000000000000002e+00 2.0000000000000000e-03 7.6567520382871432e+00 -9.4127174473323443e+00 -2.5478309025567789e+01 0 0 0
3695 1 6.2000000000000002e+00 2.0000000000000000e-03 1.1371298931861750e+01 -1.0779596984223231e+01 -2.7613452957348382e+01 0 0 0
4168 1 6.2000000000000002e+00 2.0000000000000000e-03 8.3339353845244073e+00 -9.4179887861452087e+00 -2.8936373239200638e+01 0 0 0
1206 1 6.2000000000000002e+00 2.0000000000000000e-03 4.6433395858443038e+00 -9.8910171982937403e+00 -2.6655902642371942e+01 0 0 0
3946 1 6.2000000000000002e+00 2.0000000000000000e-03 6.5970886219375036e+00 -8.3078358619941071e+00 -2.6671703567838190e+01 0 0 0
1850 1 6.2000000000000002e+00 2.0000000000000000e-03 5.6579179466545515e+00 -1.2353393876736568e+01 -2.5656543815344687e+01 0 1 0
1176 1 6.2000000000000002e+00 2.0000000000000000e-03 9.2671602050873343e+00 -1.0533314993457706e+01 -2.7854154414436803e+01 0 0 0
1531 1 6.2000000000000002e+00 2.0000000000000000e-03 7.7689660955544699e+00 -1.0833069893984547e+01 -2.6479792871412656e+01 0 0 0
1791 1 6.2000000000000002e+00 2.0000000000000000e-03 1.0607588088064896e+01 -1.2424652224070169e+01 -2.7534605918146976e+01 0 0 0
2902 1 6.2000000000000002e+00 2.0000000000000000e-03 9.0593209976149094e+00 -1.0782024240793806e+01 -2.4073145012119454e+01 0 0 0
5305 1 6.2000000000000002e+00 2.0000000000000000e-03 9.6632592508420014e+00 -8.6845192823361330e+00 -2.6972104685243153e+01 0 0 0
1273 1 6.2000000000000002e+00 2.0000000000000000e-03 7.4612156476515406e+00 -1.0172832716316075e+01 -2.2841720995849553e+01 0 0 0
3414 1 6.2000000000000002e+00 2.0000000000000000e-03 1.2460535974663644e+01 -8.0843403900231614e+00 -2.2106005774371546e+01 0 0 0