LAMMPS data file via write_data, version 31 Mar 2017, timestep = 0

3945 atoms
7 atom types

-4.0000000000000000e+01 4.0000000000000000e+01 xlo xhi
-4.0000000000000000e+01 4.0000000000000000e+01 ylo yhi
-1.0000000000000000e+02 1.0000000000000000e+02 zlo zhi

Atoms # sphere

1 1 2.5000000000000000e+00 1.0700000000000001e+00 -3.0302189323260535e+01 -8.8959560398459239e+00 1.4167095773931180e+01 0 0 0
2 1 2.5000000000000000e+00 1.0700000000000001e+00 -3.7448531015519301e+01 -3.7460777832875394e+01 -8.2325928417186276e+00 0 0 0
3 1 2.5000000000000000e+00 1.0700000000000001e+00 1.3924843694048398e+01 3.4847965871378761e+01 2.4406000657196159e+01 0 0 0
4 1 2.5000000000000000e+00 1.0700000000000001e+00 -3.3387818016758146e+00 -3.4905740765345165e+01 -5.1962607890350093e+01 0 0 0
5 1 2.5000000000000000e+00 1.0700000000000001e+00 2.5779674754375435e+01 -1.0064032119728665e+00 -8.6546959069812189e+01 0 0 0
6 1 2.5000000000000000e+00 1.0700000000000001e+00 2.1035654666384502e+00 -5.3752022075351320e+00 -5.2558755107484181e+01 0 0 0
7 1 2.5000000000000000e+00 1.0700000000000001e+00 1.8001163405366782e+01 -1.4446646000466611e+01 -1.1948324605798504e+01 0 0 0
8 1 2.5000000000000000e+00 1.0700000000000001e+00 -6.1966598621553999e+00 1.2737696754158335e+01 6.1733678477692280e+00 0 0 0
9 1 2.5000000000000000e+00 1.0700000000000001e+00 -1.7682633017042015e+01 7.9868825748501777e+00 -1.1161411232855841e+01 0 0 0
10 1 2.5000000000000000e+00 1.0700000000000001e+00 4.0645637568387016e+00 -6.8769388119117068e+00 4.8223470499843103e+01 0 0 0
11 1 2.5000000000000000e+00 1.0700000000000001e+00 3.6747476345276212e+01 1.4834935057365769e+01 -7.3116227133719363e+01 0 0 0
12 1 2.5000000000000000e+00 1.0700000000000001e+00 -2.5771774568488716e+01 -2.6215172589856746e+01 -9.6014294305822943e+01 0 0 0
13 1 2.5000000000000000e+00 1.0700000000000001e+00 3.5102240813478005e+01 -3.6638647875114643e+01 -6.4387092629627830e+01 0 0 0
14 1 2.5000000000000000e+00 1.0700000000000001e+00 1.8453669538001378e+01 -9.1760748108737502e+00 4.4276634112129273e+01 0 0 0
15 1 2.5000000000000000e+00 1.0700000000000001e+00 -1.7044190977254971e+01 1.8282245275695921e+01 -2.5759128446578572e+01 0 0 0
16 1 2.5000000000000000e+00 1.0700000000000001e+00 2.6531279341565110e+01 -8.7881063152049244e+00 -5.4257099122860048e+01 0 0 0
17 1 2.5000000000000000e+00 1.0700000000000001e+00 -3.9625983163540241e+01 6.1009703791239218e+00 -5.2477095160855491e+01 0 0 0
18 1 2.5000000000000000e+00 1.0700000000000001e+00 6.9846526007096514e+00 3.1056260127134735e+01 -9.3590108115966487e+01 0 0 0
19 1 2.5000000000000000e+00 1.0700000000000001e+00 1.2421157980533849e+01 -3.7597821167482913e+01 3.3549095286777771e+01 0 0 0
20 1 2.5000000000000000e+00 1.0700000000000001e+00 2.3857793949478214e+01 1.7942908880274231e+01 -8.3826123077341407e+01 0 0 0
21 1 2.5000000000000000e+00 1.0700000000000001e+00 -2.6260224350849271e+01 4.4093352763025706e+00 6.9244972043319109e+01 0 0 0
22 1 2.5000000000000000e+00 1.0700000000000001e+00 9.8052825824382239e-02 -3.2026156369608898e+01 -5.9025260041945273e+01 0 0 0
23 1 2.5000000000000000e+00 1.0700000000000001e+00 -1.5018209989656789e+01 -1.1055296161703438e+01 8.4093525625808866e+01 0 0 0
24 1 2.5000000000000000e+00 1.0700000000000001e+00 -1.6045922812095807e+01 -3.8247028942334964e+00 9.5546141544145598e+01 0 0 0
25 1 2.5000000000000000e+00 1.0700000000000001e+00 1.7600372982025320e+01 -3.0531291100443944e+01 -4.8523812903335227e+01 0 0 0
26 1 2.5000000000000000e+00 1.0700000000000001e+00 2.4110613457910077e+01 2.7080387094561189e+01 5.0164745724836706e+01 0 0 0
27 1 2.5000000000000000e+00 1.0700000000000001e+00 -3.2447441067754966e+01 1.5857974242352874e+01 -8.7567271938345982e+01 0 0 0
28 1 2.5000000000000000e+00 1.0700000000000001e+00 2.2744212887596440e+01 2.1986001833335500e+01 -3.1679678257405612e+00 0 0 0
29 1 2.5000000000000000e+00 1.0700000000000001e+00 -1.7614098888642200e+01 3.9839978590533121e+01 -2.3699572274321497e+01 0 0 0
30 1 2.5000000000000000e+00 1.0700000000000001e+00 3.2515514191480122e+01 8.2470162064987278e+00 -8.0996543439569209e+01 0 0 0
31 1 2.5000000000000000e+00 1.0700000000000001e+00 3.6437764464150064e+01 9.5073489702806597e+00 7.5035358767507319e+01 0 0 0
32 1 2.5000000000000000e+00 1.0700000000000001e+00 -3.2290077801928888e+01 2.0662382981117062e+01 -1.8323090913855978e+01 0 0 0
33 1 2.5000000000000000e+00 1.0700000000000001e+00 1.7524404329026304e+01 -2.7336442054871675e+01 -8.9540405706288482e+00 0 0 0
34 1 2.5000000000000000e+00 1.0700000000000001e+00 -3.6223948223620631e+01 -1.5897794391912313e+01 1.4424137824412497e+01 0 0 0
35 1 2.5000000000000000e+00 1.0700000000000001e+00 1.0593765960351448e+01 -3.0575504373095697e+01 9.3745003451474474e+01 0 0 0
36 1 2.5000000000000000e+00 1.0700000000000001e+00 -1.1090796427377867e+01 -3.0155549398695882e+00 9.3920314029753371e+01 0 0 0
37 1 2.5000000000000000e+00 1.0700000000000001e+00 -3.2512840774149097e+01 3.6685108876174837e+01 1.6562204676010751e+01 0 0 0
38 1 2.5000000000000000e+00 1.0700000000000001e+00 -1.5610404114988825e+01 3.5938039382890821e+01 2.6569770614881890e+01 0 0 0
39 1 2.5000000000000000e+00 1.0700000000000001e+00 -1.6746110272009908e+01 -1.1875341670529611e+01 2.7831358522098213e+01 0 0 0
40 1 2.5000000000000000e+00 1.0700000000000001e+00 -1.5342927638135354e+01 -2.8584814140845470e+01 -6.2428162974504829e+01 0 0 0
41 1 2.5000000000000000e+00 1.0700000000000001e+00 -1.2054045001070037e+01 -3.2334332984096527e+01 -7.8361592757683951e+00 0 0 0
42 1 2.5000000000000000e+00 1.0700000000000001e+00 3.9068420864207866e+01 -1.7050535258394916e+01 -2.0865219608352163e+01 0 0 0
43 1 2.5000000000000000e+00 1.0700000000000001e+00 -3.2698383029875522e+01 3.8276416882069981e+01 7.9346342375197594e+01 0 0 0
44 1 2.5000000000000000e+00 1.0700000000000001e+00 -1.0409480021525862e+01 7.8692782148110112e+00 4.7397390821668040e+01 0 0 0
45 1 2.5000000000000000e+00 1.0700000000000001e+00 3.1790159098706283e+00 -1.0279602804351413e+01 7.6789168164501518e+01 0 0 0
46 1 2.5000000000000000e+00 1.0700000000000001e+00 -1.7802636892442862e+00 -8.9182512876197251e-01 -7.2262347756075826e+01 0 0 0
47 1 2.5000000000000000e+00 1.0700000000000001e+00 3.4688505453378198e+01 -3.0288845072634913e+01 -6.1547839437400846e+01 0 0 0
48 1 2.5000000000000000e+00 1.0700000000000001e+00 -1.3814969758416979e+01 -2.8196729714142499e+01 4.3909236017572340e+01 0 0 0
49 1 2.5000000000000000e+00 1.0700000000000001e+00 -6.9881010646876405e+00 -9.0145942051962926e+00 2.9287983164791029e+01 0 0 0
50 1 2.5000000000000000e+00 1.0700000000000001e+00 1.7253220257001573e+01 -2.5127140574682102e+01 2.0370903294706210e+01 0 0 0
51 1 2.5000000000000000e+00 1.0700000000000001e+00 -1.0491330349115344e+01 -7.7891775815697244e+00 -8.1769033606056610e+01 0 0 0
52 1 2.5000000000000000e+00 1.0700000000000001e+00 -3.6859126797345994e+01 2.8655917005918880e+01 4.9992796196598931e+01 0 0 0
53 1 2.5000000000000000e+00 1.0700000000000001e+00 1.1570270495289130e+01 -1.8463785675570268e+01 -2.1146232737762034e+00 0 0 0
54 1 2.5000000000000000e+00 1.0700000000000001e+00 2.3810655057342096e+01 2.5679548748619652e+01 -9.5604548740947877e+00 0 0 0
55 1 2.5000000000000000e+00 1.0700000000000001e+00 -3.3026027564437143e+01 -2.8445275495036171e+01 6.3688731781992658e-01 0 0 0
56 1 2.5000000000000000e+00 1.0700000000000001e+00 -3.8333939760147565e+01 -3.8525548800139475e+01 5.2753290139489479e+01 0 0 0
57 1 2.5000000000000000e+00 1.0700000000000001e+00 9.8189497598535169e+00 -1.2911386141977918e+01 9.5832779442813603e+01 0 0 0
58 1 2.5000000000000000e+00 1.0700000000000001e+00 2.4609638147339993e+01 1.4188342343172224e+01 -4.1325595761335265e+01 0 0 0
59 1 2.5000000000000000e+00 1.0700000000000001e+00 1.6284815695269408e+01 1.8897390393026825e+01 2.1100839004433183e+01 0 0 0
60 1 2.5000000000000000e+00 1.0700000000000001e+00 1.6720459003336941e+01 -1.9245530916026574e+01 -4.9095264146614483e+01 0 0 0
61 1 2.5000000000000000e+00 1.0700000000000001e+00 2.2358195140193303e+01 1.4185721228916996e+01 4.8541736020027543e+01 0 0 0
62 1 2.5000000000000000e+00 1.0700000000000001e+00 1.6382915441125128e+01 -1.2340181010002354e+01 9.6444412226064316e+01 0 0 0
63 1 2.5000000000000000e+00 1.0700000000000001e+00 -2.3505486614771879e+01 -1.6713534470979837e+01 -6.0934634395378936e+01 0 0 0
64 1 2.5000000000000000e+00 1.0700000000000001e+00 2.8639886746481011e+01 -9.4234518936944447e+00 5.0110056693716928e+01 0 0 0
65 1 2.5000000000000000e+00 1.0700000000000001e+00 -1.1085947980678412e-01 -2.3215277112655002e+01 -4.7906080981672780e+01 0 0 0
66 1 2.5000000000000000e+00 1.0700000000000001e+00 1.6998776410240104e+01 1.8435126905532151e+01 -2.0552468030039392e+00 0 0 0
67 1 2.5000000000000000e+00 1.0700000000000001e+00 2.2986792765085951e+01 1.9026002799638547e+01 2.5072633812703486e+01 0 0 0
68 1 2.5000000000000000e+00 1.0700000000000001e+00 -1.6974039569950676e+00 3.1731694783890475e+01 8.6485582118148727e+01 0 0 0
69 1 2.5000000000000000e+00 1.0700000000000001e+00 -1.4728536109779281e+01 -2.2506397060354427e+01 -6.2538483442058080e+01 0 0 0
70 1 2.5000000000000000e+00 1.0700000000000001e+00 -3.3716484268063908e+01 -3.2951093350048687e+01 7.7435164329332849e+01 0 0 0
71 1 2.5000000000000000e+00 1.0700000000000001e+00 2.1122753238828274e+01 -2.9886315013229066e+01 5.1758931647873908e+01 0 0 0
72 1 2.5000000000000000e+00 1.0700000000000001e+00 -3.5054317673227899e+01 -3.7917133941276525e+01 1.6824622413527507e+01 0 0 0
73 1 2.5000000000000000e+00 1.0700000000000001e+00 -1.1428438337253613e+01 2.2368657785639456e+00 -1.2492149189343749e+01 0 0 0
74 1 2.5000000000000000e+00 1.0700000000000001e+00 1.7779429879868133e+01 1.8877990943788546e+01 5.9844806352558066e+00 0 0 0
75 1 2.5000000000000000e+00 1.0700000000000001e+00 -7.5335853023145276e+00 2.3031823999728928e+01 -6.0335091389871707e+01 0 0 0
76 1 2.5000000000000000e+00 1.0700000000000001e+00 -2.0752395829536205e+01 1.4483292985001256e+01 -4.8237002709990840e+01 0 0 0
77 1 2.5000000000000000e+00 1.0700000000000001e+00 3.2278181273619722e+01 1.9392665726781203e+01 3.1332175029130724e+01 0 0 0
78 1 2.5000000000000000e+00 1.0700000000000001e+00 -5.3714159901119274e-02 -2.2773885458136856e+01 9.8267762734679394e+01 0 0 0
79 1 2.5000000000000000e+00 1.0700000000000001e+00 -5.4846872973650136e+00 -2.1139406813839173e+01 -2.5025800487504242e+01 0 0 0
80 1 2.5000000000000000e+00 1.0700000000000001e+00 -3.4515173935571326e+00 -9.6528335146851987e+00 1.2067796714635477e+01 0 0 0
81 1 2.5000000000000000e+00 1.0700000000000001e+00 9.3837531513458856e+00 3.2739214670257283e+01 1.9952407535143379e+01 0 0 0
82 1 2.5000000000000000e+00 1.0700000000000001e+00 -2.3954622738042204e+01 3.4655641724660825e+01 -5.6573834063752479e+01 0 0 0
83 1 2.5000000000000000e+00 1.0700000000000001e+00 -1.4571643795152962e+01 -2.5617265135802917e+01 2.6562156400905067e+01 0 0 0
84 1 2.5000000000000000e+00 1.0700000000000001e+00 1.2065052004561316e+01 -2.2670959337926917e+01 2.2966018655787224e+01 0 0 0
85 1 2.5000000000000000e+00 1.0700000000000001e+00 -4.0497808736049450e+00 1.5332857321637150e+01 4.8332511888971794e+01 0 0 0
86 1 2.5000000000000000e+00 1.0700000000000001e+00 -3.0189072820446022e+01 -2.7746893236295733e+01 -5.5086556056089023e+01 0 0 0
87 1 2.5000000000000000e+00 1.0700000000000001e+00 -1.5899053875309907e+01 -1.5398482333588639e+01 -5.7314515606181118e+00 0 0 0
88 1 2.5000000000000000e+00 1.0700000000000001e+00 2.8597448276634069e+01 -2.6868146111661630e+00 -9.3232924674280412e+01 0 0 0
89 1 2.5000000000000000e+00 1.0700000000000001e+00 1.3693999747603200e+01 -4.9462420330132559e+00 -2.8724622134456695e+01 0 0 0
90 1 2.5000000000000000e+00 1.0700000000000001e+00 1.0110314474492483e+01 4.0553727951158578e+00 -3.3735812191728343e+00 0 0 0
91 1 2.5000000000000000e+00 1.0700000000000001e+00 -3.9911820255178874e+01 2.0369712086566594e+00 -1.1562240268831260e+01 0 0 0
92 1 2.5000000000000000e+00 1.0700000000000001e+00 2.9371120701251144e+01 -3.9574374072055505e+01 -1.6262572592246613e+01 0 0 0
93 1 2.5000000000000000e+00 1.0700000000000001e+00 2.9976976844471409e+01 -1.6950174969132142e+01 -3.9767655096840002e+00 0 0 0
94 1 2.5000000000000000e+00 1.0700000000000001e+00 -1.4999168503563464e+01 -1.1025039391138144e+01 -4.4592617146946779e+01 0 0 0
95 1 2.5000000000000000e+00 1.0700000000000001e+00 -2.7246555493793707e+01 -1.2858184190866623e+01 -6.8754239738338740e+01 0 0 0
96 1 2.5000000000000000e+00 1.0700000000000001e+00 1.8997087096328414e+01 4.0428279917886627e+00 6.9525144980067921e+01 0 0 0
97 1 2.5000000000000000e+00 1.0700000000000001e+00 -3.6355327999384762e+01 1.6002314340324290e+01 -2.2757205424251595e+01 0 0 0
98 1 2.5000000000000000e+00 1.0700000000000001e+00 -3.2140626158630766e+01 -2.7503848107300627e+01 -4.2937848504138110e+01 0 0 0
99 1 2.5000000000000000e+00 1.0700000000000001e+00 -2.2567923619676346e+01 -1.9092275900343559e+01 -9.7026426855952650e+00 0 0 0
100 1 2.5000000000000000e+00 1.0700000000000001e+00 -2.8926246719866175e+01 -3.4286207907966428e+00 -6.2074077297967897e+01 0 0 0
101 1 2.5000000000000000e+00 1.0700000000000001e+00 -3.1606858778561865e+01 -1.6475491289270803e+01 -5.8955246936043373e+01 0 0 0
102 1 2.5000000000000000e+00 1.0700000000000001e+00 -2.4334101632393015e+01 -2.3246135629362492e+01 5.5496193261582505e+01 0 0 0
103 1 2.5000000000000000e+00 1.0700000000000001e+00 -3.0191941033206852e+01 4.0470548924277807e+00 4.7128942584213320e+01 0 0 0
104 1 2.5000000000000000e+00 1.0700000000000001e+00 3.8455205149229243e+01 -3.3670569040659188e+00 -7.5313466589578184e+01 0 0 0
105 1 2.5000000000000000e+00 1.0700000000000001e+00 2.6268115838183164e+00 -1.1177710765589826e+01 -5.9462093170481779e+01 0 0 0
106 1 2.5000000000000000e+00 1.0700000000000001e+00 8.2400334851071406e+00 1.0242784195692643e+01 -2.3815057484346937e+01 0 0 0
107 1 2.5000000000000000e+00 1.0700000000000001e+00 -2.3868455767570275e+01 -3.7136085553623772e+01 3.4525250613002697e+01 0 0 0
108 1 2.5000000000000000e+00 1.0700000000000001e+00 2.6354821094477003e+01 -1.4521865125057225e+01 2.7532107908060823e+01 0 0 0
109 1 2.5000000000000000e+00 1.0700000000000001e+00 -2.7144955688689350e+01 1.4729740198110115e+01 -9.3141225908483023e+01 0 0 0
110 1 2.5000000000000000e+00 1.0700000000000001e+00 -9.8335375496342472e+00 7.7344032971814229e+00 -1.9709460679306403e+01 0 0 0
111 1 2.5000000000000000e+00 1.0700000000000001e+00 -2.2762254841049320e+01 -5.2171135159289079e+00 -1.0067155542814703e+01 0 0 0
112 1 2.5000000000000000e+00 1.0700000000000001e+00 5.2671676526158961e-01 -2.7471326248474107e+01 -7.6450645260722681e+01 0 0 0
113 1 2.5000000000000000e+00 1.0700000000000001e+00 3.7602041213587881e+01 -2.2493323228551692e+01 8.6791244329321785e+01 0 0 0
114 1 2.5000000000000000e+00 1.0700000000000001e+00 -3.9822622835553538e+01 -1.8821997148367572e+01 -5.3265181534581437e+01 0 0 0
115 1 2.5000000000000000e+00 1.0700000000000001e+00 -1.1162420684081699e+01 -6.8044373611008950e+00 9.4553179943260346e+01 0 0 0
116 1 2.5000000000000000e+00 1.0700000000000001e+00 -1.7881877449286115e+01 1.9285709848294836e+01 -6.2686449271946422e+01 0 0 0
117 1 2.5000000000000000e+00 1.0700000000000001e+00 1.1538834558585116e+01 1.3192426140044084e+01 -8.7234660697744530e+01 0 0 0
118 1 2.5000000000000000e+00 1.0700000000000001e+00 1.8823061203036026e+01 3.9189639426390471e+01 5.0674598361679614e+01 0 0 0
119 1 2.5000000000000000e+00 1.0700000000000001e+00 3.5189865899826330e+01 -3.9238216187450234e+00 -6.9174865618895211e+01 0 0 0
120 1 2.5000000000000000e+00 1.0700000000000001e+00 -8.7865827087250459e+00 3.9044144581558271e+00 5.3734495562377617e+01 0 0 0
121 1 2.5000000000000000e+00 1.0700000000000001e+00 -3.3733233247759394e+01 5.5488049078494299e+00 -5.3089784436435338e+01 0 0 0
122 1 2.5000000000000000e+00 1.0700000000000001e+00 -3.2002809267492410e+01 -3.1215358744941355e+01 8.6639344266913554e+00 0 0 0
123 1 2.5000000000000000e+00 1.0700000000000001e+00 5.8983637606251804e+00 1.3799724827427291e+01 2.9937936426111463e+01 0 0 0
124 1 2.5000000000000000e+00 1.0700000000000001e+00 -1.3240994537827092e+01 1.8604802740088104e+01 -7.2700868347986074e+01 0 0 0
125 1 2.5000000000000000e+00 1.0700000000000001e+00 -3.3397729840780485e+01 -3.5645433997570272e+01 6.7977007091034665e+01 0 0 0
126 1 2.5000000000000000e+00 1.0700000000000001e+00 3.5823271607897837e+01 1.7259139389386036e+00 -8.1411070647375226e+01 0 0 0
127 1 2.5000000000000000e+00 1.0700000000000001e+00 -3.0345748174165259e+01 -2.0989563195495663e+01 7.1028433260986787e+01 0 0 0
128 1 2.5000000000000000e+00 1.0700000000000001e+00 -1.0048873038053920e+01 -1.1409150572218536e+01 1.6015831807635635e+01 0 0 0
129 1 2.5000000000000000e+00 1.0700000000000001e+00 -8.7659236270775693e+00 3.1121599707343421e+01 5.1815703302536008e+01 0 0 0
130 1 2.5000000000000000e+00 1.0700000000000001e+00 2.6610162289165970e+01 3.6997594012412051e+01 -5.3593583476540438e+01 0 0 0
131 1 2.5000000000000000e+00 1.0700000000000001e+00 2.1057003913939461e+01 -1.4935218419383848e+01 5.9460063539193982e+01 0 0 0
132 1 2.5000000000000000e+00 1.0700000000000001e+00 -2.1884838706760124e+01 2.1515855482553988e+01 4.2457738212522912e+01 0 0 0
133 1 2.5000000000000000e+00 1.0700000000000001e+00 -5.1175448508549195e+00 -1.0576308318682159e+01 9.9652197724046374e+00 0 0 0
134 1 2.5000000000000000e+00 1.0700000000000001e+00 3.4179485921831557e+01 -2.5380111776934989e+01 -8.8465873658874017e+00 0 0 0
135 1 2.5000000000000000e+00 1.0700000000000001e+00 -3.3837543387821661e+01 1.2408280881311875e+01 -3.5058069478281809e+01 0 0 0
136 1 2.5000000000000000e+00 1.0700000000000001e+00 -8.3894885929252467e+00 3.7865218705434927e+01 1.8269556117369632e+00 0 0 0
137 1 2.5000000000000000e+00 1.0700000000000001e+00 -3.7742813414774282e+01 -2.3465062111367033e+01 5.6752735635616233e+01 0 0 0
138 1 2.5000000000000000e+00 1.0700000000000001e+00 1.7291131120776349e+01 -2.7959253111835221e+01 2.2082373463587075e+01 0 0 0
139 1 2.5000000000000000e+00 1.0700000000000001e+00 -2.4619678996791912e+01 -2.2944899081692519e+01 -8.7297165015385104e+01 0 0 0
140 1 2.5000000000000000e+00 1.0700000000000001e+00 -1.3809654309325694e+00 -9.8859976836880676e+00 1.5092325636694355e+01 0 0 0
141 1 2.5000000000000000e+00 1.0700000000000001e+00 2.2686790368839532e+01 1.6885729086066476e+01 9.6121873797905579e+01 0 0 0
142 1 2.5000000000000000e+00 1.0700000000000001e+00 -3.1866831440416554e+01 1.4163980919012793e+01 -6.4931735380055258e+01 0 0 0
143 1 2.5000000000000000e+00 1.0700000000000001e+00 3.6929386964500594e+01 3.2206712361521411e+01 4.5536650226235707e+01 0 0 0
144 1 2.5000000000000000e+00 1.0700000000000001e+00 -2.6207859062686495e+01 4.5127334280464453e+00 1.3776812941663351e+01 0 0 0
145 1 2.5000000000000000e+00 1.0700000000000001e+00 -2.1241955785659123e+01 2.6449110427149151e+01 -7.4502627260285720e+01 0 0 0
146 1 2.5000000000000000e+00 1.0700000000000001e+00 1.3737454551149838e+01 5.3986411753104235e+00 3.7405583605824773e+01 0 0 0
147 1 2.5000000000000000e+00 1.0700000000000001e+00 3.0257465238802823e+01 -2.2781731441049711e+01 -3.1400824306253725e+01 0 0 0
148 1 2.5000000000000000e+00 1.0700000000000001e+00 1.8538353917439636e+01 -2.5885709592087991e+01 -5.2802785557137241e+01 0 0 0
149 1 2.5000000000000000e+00 1.0700000000000001e+00 -2.2566743522215049e+01 7.4162213166319191e-01 -3.8892082841550966e+01 0 0 0
150 1 2.5000000000000000e+00 1.0700000000000001e+00 -2.3694527178860515e+01 6.0817048913248328e+00 -6.1964728758653962e+01 0 0 0
151 1 2.5000000000000000e+00 1.0700000000000001e+00 -1.6478498678877251e+01 5.8727041100490425e+00 -4.3655056014496395e+01 0 0 0
152 1 2.5000000000000000e+00 1.0700000000000001e+00 3.5789425743645722e+01 -7.1215265463672210e+00 -2.8741661984818833e+01 0 0 0
153 1 2.5000000000000000e+00 1.0700000000000001e+00 -2.4445191540031317e+01 2.9665786693648343e+01 8.2192400368951468e+01 0 0 0
154 1 2.5000000000000000e+00 1.0700000000000001e+00 3.0692003867911097e+00 -1.5949099201685328e+01 5.8724293186666586e+01 0 0 0
155 1 2.5000000000000000e+00 1.0700000000000001e+00 -8.3217646779128174e+00 -2.3898941680741935e+01 2.6217929425750825e+01 0 0 0
156 1 2.5000000000000000e+00 1.0700000000000001e+00 1.7895943437654502e+01 -2.2878643340840302e+01 9.6603426242528229e+01 0 0 0
157 1 2.5000000000000000e+00 1.0700000000000001e+00 5.5139432686911576e+00 3.2844516892379389e+01 4.4488525551039970e+01 0 0 0
158 1 2.5000000000000000e+00 1.0700000000000001e+00 -3.2540425468487861e+01 -2.6930848875516489e+01 3.3057372985900088e+01 0 0 0
159 1 2.5000000000000000e+00 1.0700000000000001e+00 -1.8928903908901304e+00 2.6191200309522074e+01 8.8759005343894927e+01 0 0 0
160 1 2.5000000000000000e+00 1.0700000000000001e+00 -1.0958874063081513e+01 -2.5796378211023463e+01 -9.9321481678318918e+01 0 0 0
161 1 2.5000000000000000e+00 1.0700000000000001e+00 -3.8457027002450559e+01 -2.7252830186510845e+01 -9.5792361719437110e+01 0 0 0
162 1 2.5000000000000000e+00 1.0700000000000001e+00 7.1106325681836466e+00 -1.1598426537401242e+01 6.3112964743335255e+01 0 0 0
163 1 2.5000000000000000e+00 1.0700000000000001e+00 -2.4160623505786351e+01 1.2400738248788166e+01 4.8019368456685612e+01 0 0 0
164 1 2.5000000000000000e+00 1.0700000000000001e+00 2.4610260606096247e+01 2.4650006659631615e+01 -6.8345178928386972e+01 0 0 0
165 1 2.5000000000000000e+00 1.0700000000000001e+00 -3.0968899759915146e+01 -1.4298264893842052e+01 2.2654822991534516e+01 0 0 0
166 1 2.5000000000000000e+00 1.0700000000000001e+00 -1.6155992511732503e+01 -1.3766144688132286e+01 -1.8984433598343486e+01 0 0 0
167 1 2.5000000000000000e+00 1.0700000000000001e+00 -2.8550194943579935e+01 -3.1264167479828089e+00 3.5784291632373026e+01 0 0 0
168 1 2.5000000000000000e+00 1.0700000000000001e+00 1.0635786117350591e+01 3.5657274311248813e+01 2.9523372896725022e+01 0 0 0
169 1 2.5000000000000000e+00 1.0700000000000001e+00 -2.6868989703650215e-01 -3.5871099492474968e+01 -1.3922925067098319e+01 0 0 0
170 1 2.5000000000000000e+00 1.0700000000000001e+00 -1.0406410885232660e+00 2.9945225189414444e+01 2.3499396221479117e+01 0 0 0
171 1 2.5000000000000000e+00 1.0700000000000001e+00 -1.8259082240173168e+01 -3.9521059039757489e-01 -5.7609820299600187e+00 0 0 0
172 1 2.5000000000000000e+00 1.0700000000000001e+00 -9.9299910152004998e+00 -1.3358992474786469e+01 8.8533690659577815e+01 0 0 0
173 1 2.5000000000000000e+00 1.0700000000000001e+00 -5.7044337902704427e+00 -3.4418713075303806e+01 1.1723358422388969e+01 0 0 0
174 1 2.5000000000000000e+00 1.0700000000000001e+00 1.3794002036468129e+01 -4.2077730801924034e+00 -1.0539698419412957e-01 0 0 0
175 1 2.5000000000000000e+00 1.0700000000000001e+00 1.1437154659739299e+01 -1.5741633761553857e+01 -2.4096576089084422e+01 0 0 0
176 1 2.5000000000000000e+00 1.0700000000000001e+00 3.5382683032836155e+00 2.7675373287720319e+01 4.9997116788289105e+01 0 0 0
177 1 2.5000000000000000e+00 1.0700000000000001e+00 -3.9383255690049033e+01 5.6216173458945136e+00 6.3068311225189007e+00 0 0 0
178 1 2.5000000000000000e+00 1.0700000000000001e+00 -4.3572952991152647e-01 3.6693790776978148e+01 -1.8646028320605879e+01 0 0 0
179 1 2.5000000000000000e+00 1.0700000000000001e+00 6.4808062307912877e+00 -3.7089679090813583e+01 -1.5591198259774217e+01 0 0 0
180 1 2.5000000000000000e+00 1.0700000000000001e+00 -1.6507660810140734e+01 -4.2552360353317269e+00 5.6198854491207300e+00 0 0 0
181 1 2.5000000000000000e+00 1.0700000000000001e+00 2.1365897348786653e+01 -2.3363258942665187e+01 -6.5732623434501050e+01 0 0 0
182 1 2.5000000000000000e+00 1.0700000000000001e+00 1.2719174536279951e+01 1.1166431257113089e+01 -1.4474654250999279e+01 0 0 0
183 1 2.5000000000000000e+00 1.0700000000000001e+00 -3.0205598617999627e+01 1.4504027280259891e+01 2.2966248319934238e+01 0 0 0
184 1 2.5000000000000000e+00 1.0700000000000001e+00 -2.5057947461054653e+00 -3.4892297794526584e+01 -8.7122581520640566e+01 0 0 0
185 1 2.5000000000000000e+00 1.0700000000000001e+00 -2.7691046962370649e+01 3.6573703436448099e+01 -6.4415859041929181e+01 0 0 0
186 1 2.5000000000000000e+00 1.0700000000000001e+00 -1.4937167081486976e+01 -8.9671385516259541e+00 2.3255907056506686e+01 0 0 0
187 1 2.5000000000000000e+00 1.0700000000000001e+00 2.4811959483107529e+01 -2.5396967411691772e+01 8.2921779240910809e+01 0 0 0
188 1 2.5000000000000000e+00 1.0700000000000001e+00 2.6537480795074941e+01 1.5439722824580841e+01 -6.1446218174624356e+01 0 0 0
189 1 2.5000000000000000e+00 1.0700000000000001e+00 2.9364455635363441e+01 8.4058635534745889e+00 -6.6281418812592250e+00 0 0 0
190 1 2.5000000000000000e+00 1.0700000000000001e+00 -8.5448827820573392e+00 -1.3844918037692512e+01 7.1156351254860112e+01 0 0 0
191 1 2.5000000000000000e+00 1.0700000000000001e+00 -3.0081783826501010e+01 1.5459227997557832e+01 -4.1887612613797010e+01 0 0 0
192 1 2.5000000000000000e+00 1.0700000000000001e+00 -2.0420800345214474e+00 -1.2391402019370048e+00 -6.5573434888186597e+01 0 0 0
193 1 2.5000000000000000e+00 1.0700000000000001e+00 -3.7088066300883924e+01 2.0869681043955346e+01 9.1823264393873160e+01 0 0 0
194 1 2.5000000000000000e+00 1.0700000000000001e+00 2.9441867130548630e+01 2.9460863130847400e+01 7.1816600380379981e+01 0 0 0
195 1 2.5000000000000000e+00 1.0700000000000001e+00 8.6410372185711921e+00 2.9912532526027661e+01 4.9835412367170392e+01 0 0 0
196 1 2.5000000000000000e+00 1.0700000000000001e+00 -6.4897379868150367e+00 -3.3026344400377170e+01 -8.4425842847873383e+01 0 0 0
197 1 2.5000000000000000e+00 1.0700000000000001e+00 2.1943702316816754e+01 7.8048387392446585e+00 -6.0188273787586141e+01 0 0 0
198 1 2.5000000000000000e+00 1.0700000000000001e+00 6.2729808158581051e+00 -1.0011427872819560e+01 -5.5170646195845045e+01 0 0 0
199 1 2.5000000000000000e+00 1.0700000000000001e+00 -2.1220245427088926e+01 -8.6648930835839799e+00 -7.7145139489856149e+01 0 0 0
200 1 2.5000000000000000e+00 1.0700000000000001e+00 8.6562375950888892e+00 -3.4614739341016275e+01 -2.4810261151199356e+01 0 0 0
201 1 2.5000000000000000e+00 1.0700000000000001e+00 5.5763327170053145e+00 -3.8576025291614243e+01 -6.8142690401590755e+01 0 0 0
202 1 2.5000000000000000e+00 1.0700000000000001e+00 -2.9679031814299073e+01 -1.5487702924519638e+01 4.5442368996069945e+01 0 0 0
203 1 2.5000000000000000e+00 1.0700000000000001e+00 -2.0041713221018071e+01 3.8925894349313296e+01 -3.1234177728758269e+01 0 0 0
204 1 2.5000000000000000e+00 1.0700000000000001e+00 1.8869965103859997e+01 2.7503500574968527e+01 2.8335408739901823e+01 0 0 0
205 1 2.5000000000000000e+00 1.0700000000000001e+00 1.3285876611846447e+01 1.5728215303145447e+01 6.0286499913915293e+01 0 0 0
206 1 2.5000000000000000e+00 1.0700000000000001e+00 1.4081621269733475e+01 2.9808680410407803e+01 8.6229144309754076e+01 0 0 0
207 1 2.5000000000000000e+00 1.0700000000000001e+00 2.1291365614762235e+01 3.9818873088722597e+00 -9.1049999460135581e+01 0 0 0
208 1 2.5000000000000000e+00 1.0700000000000001e+00 -3.0936370599519634e+01 -2.7580666126488087e+01 -7.0638969713188231e+01 0 0 0
209 1 2.5000000000000000e+00 1.0700000000000001e+00 -1.1665587821819628e+01 1.6465478677519350e+01 3.8250332669471561e+01 0 0 0
210 1 2.5000000000000000e+00 1.0700000000000001e+00 2.9336470323305804e+01 1.8056723800514227e+01 9.8392288106676318e+01 0 0 0
211 1 2.5000000000000000e+00 1.0700000000000001e+00 3.1674483563599395e+01 3.3045253415147428e+01 7.8935370956983121e+01 0 0 0
212 1 2.5000000000000000e+00 1.0700000000000001e+00 2.6711869606148383e+01 -1.3607529463995029e+01 4.5630746588870295e+01 0 0 0
213 1 2.5000000000000000e+00 1.0700000000000001e+00 -3.3616832342751714e+01 -3.8101184628019659e+01 8.3474892183893758e+01 0 0 0
214 1 2.5000000000000000e+00 1.0700000000000001e+00 -1.4994826118925037e+01 -1.8042580773142440e+01 9.5862364487658425e+01 0 0 0
215 1 2.5000000000000000e+00 1.0700000000000001e+00 -1.6496022369943567e+01 3.1352028358425954e+01 -6.6148449837299268e+01 0 0 0
216 1 2.5000000000000000e+00 1.0700000000000001e+00 1.7201433804445642e+01 -1.5502048682189571e+01 4.2669496099776353e+01 0 0 0
217 1 2.5000000000000000e+00 1.0700000000000001e+00 -2.1511620423529120e+01 -2.5804458253925880e+01 -3.8824684330646264e+01 0 0 0
218 1 2.5000000000000000e+00 1.0700000000000001e+00 2.9412181931274091e+01 1.0541718923739026e+01 -6.3325121795444339e+01 0 0 0
219 1 2.5000000000000000e+00 1.0700000000000001e+00 3.7871193586788692e+01 2.1150613157614416e+01 9.5888350063882910e+01 0 0 0
220 1 2.5000000000000000e+00 1.0700000000000001e+00 -1.8001905278303667e+00 -1.5802201244887989e+01 3.1009192918897241e+01 0 0 0
221 1 2.5000000000000000e+00 1.0700000000000001e+00 -1.1397844837698084e+01 3.6421812808337535e+01 -4.6480325677655784e+01 0 0 0
222 1 2.5000000000000000e+00 1.0700000000000001e+00 2.0665342556622477e+00 1.2241234915443336e+01 -5.3911940359469476e+01 0 0 0
223 1 2.5000000000000000e+00 1.0700000000000001e+00 -3.9192648641389162e+01 9.1542841722975865e+00 4.0135209513891112e+01 0 0 0
224 1 2.5000000000000000e+00 1.0700000000000001e+00 -1.9013480012777020e+01 -3.9558574743363344e+01 4.7585720730752570e+01 0 0 0
225 1 2.5000000000000000e+00 1.0700000000000001e+00 -1.0716671296729086e+01 -3.5094484125773647e+01 1.7513245305751084e+01 0 0 0
226 1 2.5000000000000000e+00 1.0700000000000001e+00 -2.1954458496512128e+01 -2.8583950879324206e+01 -2.6156072004770891e+01 0 0 0
227 1 2.5000000000000000e+00 1.0700000000000001e+00 -2.0408736737635351e+00 1.9036165056301357e+01 5.2065253142297848e+01 0 0 0
228 1 2.5000000000000000e+00 1.0700000000000001e+00 2.4283825039995747e+01 -2.1752552791383376e+01 1.2113088049047207e+01 0 0 0
229 1 2.5000000000000000e+00 1.0700000000000001e+00 -6.1316638654711042e+00 -1.4874586972815255e+01 7.0418697348990804e+00 0 0 0
230 1 2.5000000000000000e+00 1.0700000000000001e+00 -1.8918146220463395e+01 -3.7283527328299137e+01 3.9390483190953006e+01 0 0 0
231 1 2.5000000000000000e+00 1.0700000000000001e+00 1.4340396138997932e+01 -2.0962091861740728e+01 2.5305199308928650e+01 0 0 0