  LIGGGHTS Description

           9859 atoms

           4  atom types
           0  bond types
           0  angle types
					
-13.445 13.445 xlo xhi
-13.445 13.445 ylo yhi
-75.370 75.370 zlo zhi
	
	Atoms							

4037	1	1.30E+00	9.50E-01	-9.32E+00	-1.10E+01	-6.95E+01
1551	1	1.30E+00	9.50E-01	-1.20E+01	-9.49E+00	-7.07E+01
4908	1	1.30E+00	9.50E-01	-1.05E+01	-9.38E+00	-6.94E+01
6951	1	1.30E+00	9.50E-01	-1.05E+01	-1.06E+01	-6.96E+01
3751	1	1.30E+00	9.50E-01	-9.51E+00	-9.85E+00	-6.99E+01
594	1	1.30E+00	9.50E-01	-1.01E+01	-1.12E+01	-6.85E+01
7213	1	1.30E+00	9.50E-01	-8.96E+00	-1.09E+01	-6.83E+01
2332	1	1.30E+00	9.50E-01	-8.19E+00	-9.98E+00	-6.80E+01
2636	1	1.30E+00	9.50E-01	-1.11E+01	-1.02E+01	-6.86E+01
8045	1	1.30E+00	9.50E-01	-1.04E+01	-9.25E+00	-6.81E+01
3756	1	1.30E+00	9.50E-01	-9.83E+00	-1.08E+01	-7.06E+01
8218	1	1.30E+00	9.50E-01	-7.56E+00	-4.95E+00	-6.74E+01
12	1	1.30E+00	9.50E-01	-1.12E+01	-8.81E+00	-7.01E+01
6109	1	1.30E+00	9.50E-01	-9.34E+00	-9.81E+00	-6.77E+01
9262	1	1.30E+00	9.50E-01	-1.01E+01	-8.80E+00	-7.04E+01
6614	1	1.30E+00	9.50E-01	-6.31E+00	-1.25E+01	-6.39E+01
3088	1	1.30E+00	9.50E-01	-1.19E+01	-8.36E+00	-7.13E+01
4270	1	1.30E+00	9.50E-01	-1.04E+01	-1.04E+01	-6.77E+01
5921	1	1.30E+00	9.50E-01	-8.13E+00	-1.11E+01	-6.75E+01
2292	1	1.30E+00	9.50E-01	-7.10E+00	-4.38E+00	-6.65E+01
714	1	1.30E+00	9.50E-01	-8.96E+00	-1.15E+01	-6.53E+01
7131	1	1.30E+00	9.50E-01	-1.20E+01	-7.91E+00	-7.02E+01
5140	1	1.30E+00	9.50E-01	-4.67E+00	-1.20E+01	-6.44E+01
5985	1	1.30E+00	9.50E-01	-7.52E+00	-1.08E+01	-6.65E+01
2969	1	1.30E+00	9.50E-01	-8.63E+00	-1.14E+01	-6.64E+01
139	1	1.30E+00	9.50E-01	-8.35E+00	-1.05E+01	-6.56E+01
4480	1	1.30E+00	9.50E-01	-7.39E+00	-5.61E+00	-6.65E+01
8889	1	1.30E+00	9.50E-01	-7.26E+00	-6.10E+00	-6.76E+01
767	1	1.30E+00	9.50E-01	-8.06E+00	-6.15E+00	-6.38E+01
8383	1	1.30E+00	9.50E-01	-1.13E+01	-1.33E+01	-6.46E+01
7259	1	1.30E+00	9.50E-01	-1.29E+01	-8.61E+00	-7.07E+01
7120	1	1.30E+00	9.50E-01	-8.82E+00	-1.30E+01	-6.40E+01
6447	1	1.30E+00	9.50E-01	-8.06E+00	-5.49E+00	-6.84E+01
7698	1	1.30E+00	9.50E-01	-1.01E+01	-1.17E+01	-6.49E+01
1633	1	1.30E+00	9.50E-01	-7.59E+00	-1.20E+01	-6.67E+01
838	1	1.30E+00	9.50E-01	-3.78E+00	-1.14E+01	-7.33E+01
4657	1	1.30E+00	9.50E-01	-9.91E+00	-8.56E+00	-7.16E+01
1192	1	1.30E+00	9.50E-01	-1.05E+01	-1.01E+01	-7.17E+01
6569	1	1.30E+00	9.50E-01	-7.13E+00	-1.05E+01	-6.76E+01
2122	1	1.30E+00	9.50E-01	-1.15E+01	-8.98E+00	-6.88E+01
8481	1	1.30E+00	9.50E-01	-1.09E+01	-9.05E+00	-7.12E+01
4734	1	1.30E+00	9.50E-01	-7.74E+00	-1.15E+01	-6.56E+01
9061	1	1.30E+00	9.50E-01	-4.99E+00	-1.14E+01	-6.85E+01
3240	1	1.30E+00	9.50E-01	-2.33E+00	-1.26E+01	-6.49E+01
6606	1	1.30E+00	9.50E-01	-9.39E-01	-5.38E+00	-6.67E+01
572	1	1.30E+00	9.50E-01	-1.32E+01	-8.85E+00	-7.28E+01
5075	1	1.30E+00	9.50E-01	-9.17E+00	-1.19E+01	-6.41E+01
3038	1	1.30E+00	9.50E-01	-5.78E+00	-1.19E+01	-6.49E+01
7743	1	1.30E+00	9.50E-01	-1.74E+00	-7.07E+00	-6.81E+01
7605	1	1.30E+00	9.50E-01	-8.55E+00	-1.02E+01	-6.68E+01
8635	1	1.30E+00	9.50E-01	-6.54E+00	-3.63E+00	-6.57E+01
6893	1	1.30E+00	9.50E-01	-5.80E+00	-1.20E+01	-6.78E+01
9116	1	1.30E+00	9.50E-01	-5.20E+00	-1.10E+01	-6.73E+01
8471	1	1.30E+00	9.50E-01	-6.57E+00	-1.25E+01	-6.70E+01
9328	1	1.30E+00	9.50E-01	-1.01E+01	-1.28E+01	-6.43E+01
800	1	1.30E+00	9.50E-01	-1.16E+01	-9.41E+00	-7.34E+01
2214	1	1.30E+00	9.50E-01	-1.31E+01	-8.05E+00	-6.96E+01
2270	1	1.30E+00	9.50E-01	-2.56E+00	-1.33E+01	-7.30E+01
8397	1	1.30E+00	9.50E-01	-8.54E+00	-1.25E+01	-6.60E+01
6217	1	1.30E+00	9.50E-01	-5.47E+00	-1.30E+01	-6.70E+01
2467	1	1.30E+00	9.50E-01	-9.43E+00	-1.10E+01	-6.72E+01
4292	1	1.30E+00	9.50E-01	-1.15E+01	-9.93E+00	-6.97E+01
5807	1	1.30E+00	9.50E-01	-6.67E-01	-6.33E+00	-7.02E+01
967	1	1.30E+00	9.50E-01	-1.58E-01	-7.13E+00	-6.93E+01
5879	1	1.30E+00	9.50E-01	-1.03E+01	-9.41E+00	-7.34E+01
2204	1	1.30E+00	9.50E-01	-8.17E-01	-7.87E+00	-6.86E+01
6859	1	1.30E+00	9.50E-01	-6.51E+00	-1.20E+01	-6.59E+01
1749	1	1.30E+00	9.50E-01	-5.46E+00	-1.19E+01	-6.66E+01
4596	1	1.30E+00	9.50E-01	-7.06E+00	-1.17E+01	-6.79E+01
6482	1	1.30E+00	9.50E-01	-4.25E+00	-1.14E+01	-6.66E+01
7208	1	1.30E+00	9.50E-01	-4.64E+00	-1.21E+01	-6.75E+01
1466	1	1.30E+00	9.50E-01	-4.46E+00	-1.26E+01	-6.64E+01
5915	1	1.30E+00	9.50E-01	-1.10E+01	-8.35E+00	-7.33E+01
1972	1	1.30E+00	9.50E-01	-3.49E+00	-1.22E+01	-6.46E+01
8944	1	1.30E+00	9.50E-01	-5.46E+00	-1.27E+01	-6.58E+01
1879	1	1.30E+00	9.50E-01	-1.24E+01	-1.27E+01	-6.49E+01
184	1	1.30E+00	9.50E-01	-4.77E+00	-1.17E+01	-6.56E+01
1367	1	1.30E+00	9.50E-01	-4.34E+00	-1.28E+01	-6.53E+01
4330	1	1.30E+00	9.50E-01	-8.49E-01	-7.57E+00	-6.74E+01
8164	1	1.30E+00	9.50E-01	-5.47E-01	-6.75E+00	-6.82E+01
2912	1	1.30E+00	9.50E-01	-4.69E+00	-3.90E+00	-7.32E+01
886	1	1.30E+00	9.50E-01	-1.10E+01	-1.03E+01	-7.29E+01
3080	1	1.30E+00	9.50E-01	-3.30E-01	-5.66E+00	-6.78E+01
6929	1	1.30E+00	9.50E-01	-1.21E+01	-1.04E+01	-7.38E+01
7359	1	1.30E+00	9.50E-01	-1.30E+00	-6.79E+00	-6.92E+01
7020	1	1.30E+00	9.50E-01	-7.02E+00	-1.19E+01	-6.47E+01
2931	1	1.30E+00	9.50E-01	-1.25E+01	-9.87E+00	-7.27E+01
2813	1	1.30E+00	9.50E-01	-1.31E+01	-8.92E+00	-6.87E+01
9034	1	1.30E+00	9.50E-01	-6.44E+00	-1.12E+01	-6.69E+01
4278	1	1.30E+00	9.50E-01	-9.66E+00	-9.55E+00	-7.24E+01
668	1	1.30E+00	9.50E-01	-8.34E+00	-1.34E+01	-6.52E+01
244	1	1.30E+00	9.50E-01	-9.87E+00	-8.41E+00	-7.28E+01
6425	1	1.30E+00	9.50E-01	-8.41E+00	-5.76E+00	-6.72E+01
2916	1	1.30E+00	9.50E-01	-1.17E+01	-9.79E+00	-7.19E+01
1721	1	1.30E+00	9.50E-01	-1.23E+01	-9.85E+00	-6.88E+01
2782	1	1.30E+00	9.50E-01	-7.43E+00	-1.27E+01	-6.56E+01
8254	1	1.30E+00	9.50E-01	-6.12E+00	-1.09E+01	-6.81E+01
3012	1	1.30E+00	9.50E-01	-6.82E+00	-5.20E+00	-6.83E+01
5855	1	1.30E+00	9.50E-01	-6.42E+00	-5.23E+00	-6.71E+01
3274	1	1.30E+00	9.50E-01	-1.27E+01	-1.01E+01	-6.99E+01
5109	1	1.30E+00	9.50E-01	-9.69E+00	-1.20E+01	-6.61E+01
6474	1	1.30E+00	9.50E-01	-1.19E+01	-8.70E+00	-7.25E+01
9356	1	1.30E+00	9.50E-01	-1.12E+01	-1.22E+01	-6.44E+01
3605	1	1.30E+00	9.50E-01	-3.02E+00	-1.01E+01	-7.42E+01
5599	1	1.30E+00	9.50E-01	-6.41E+00	-4.90E+00	-6.57E+01
2417	1	1.30E+00	9.50E-01	-8.70E+00	-4.64E+00	-6.77E+01
7573	1	1.30E+00	9.50E-01	-1.15E+00	-6.42E+00	-6.72E+01
3497	1	1.30E+00	9.50E-01	-1.27E+01	-9.17E+00	-7.17E+01
910	1	1.30E+00	9.50E-01	-3.38E+00	-1.23E+01	-6.70E+01
3333	1	1.30E+00	9.50E-01	-8.51E+00	-5.73E+00	-6.60E+01
238	1	1.30E+00	9.50E-01	-6.82E+00	-3.24E+00	-6.69E+01
5937	1	1.30E+00	9.50E-01	-9.35E+00	-5.11E+00	-6.66E+01
3410	1	1.30E+00	9.50E-01	-8.49E+00	-5.50E+00	-6.47E+01
447	1	1.30E+00	9.50E-01	-9.76E+00	-1.01E+01	-6.87E+01
7100	1	1.30E+00	9.50E-01	-8.89E+00	-4.64E+00	-6.55E+01
7896	1	1.30E+00	9.50E-01	-1.78E+00	-1.33E+01	-6.79E+01
6850	1	1.30E+00	9.50E-01	-7.74E+00	-1.09E+01	-6.86E+01
8528	1	1.30E+00	9.50E-01	-8.58E+00	-1.01E+01	-6.91E+01
8058	1	1.30E+00	9.50E-01	-8.25E+00	-4.67E+00	-6.65E+01
7580	1	1.30E+00	9.50E-01	-1.08E+01	-9.17E+00	-7.24E+01
3946	1	1.30E+00	9.50E-01	-9.59E+00	-9.64E+00	-7.11E+01
9154	1	1.30E+00	9.50E-01	-2.09E+00	-4.99E+00	-6.87E+01
6213	1	1.30E+00	9.50E-01	-7.64E+00	-4.99E+00	-6.55E+01
4521	1	1.30E+00	9.50E-01	-7.72E+00	-4.29E+00	-6.84E+01
5001	1	1.30E+00	9.50E-01	-3.58E+00	-1.20E+01	-6.58E+01
5558	1	1.30E+00	9.50E-01	-1.08E+01	-7.91E+00	-7.08E+01
9268	1	1.30E+00	9.50E-01	-8.20E+00	-1.23E+01	-6.48E+01
8053	1	1.30E+00	9.50E-01	-6.70E+00	-4.15E+00	-6.77E+01
3050	1	1.30E+00	9.50E-01	-8.08E+00	-1.11E+01	-6.45E+01
4181	1	1.30E+00	9.50E-01	-9.09E+00	-7.68E+00	-7.36E+01
2988	1	1.30E+00	9.50E-01	-5.93E+00	-4.16E+00	-6.67E+01
574	1	1.30E+00	9.50E-01	-2.89E+00	-1.29E+01	-6.38E+01
8243	1	1.30E+00	9.50E-01	-2.50E+00	-1.25E+01	-6.61E+01
7065	1	1.30E+00	9.50E-01	-1.06E+01	-9.88E+00	-7.05E+01
3786	1	1.30E+00	9.50E-01	-9.06E-01	-1.27E+01	-6.74E+01
7351	1	1.30E+00	9.50E-01	-7.85E+00	-3.79E+00	-6.73E+01
8795	1	1.30E+00	9.50E-01	-2.38E+00	-6.26E+00	-6.89E+01
2761	1	1.30E+00	9.50E-01	-1.03E+01	-7.39E+00	-7.34E+01
8241	1	1.30E+00	9.50E-01	-1.50E+00	-5.64E+00	-6.95E+01
2948	1	1.30E+00	9.50E-01	-7.40E+00	-1.31E+01	-6.44E+01
7897	1	1.30E+00	9.50E-01	-1.09E+01	-8.04E+00	-7.21E+01
2876	1	1.30E+00	9.50E-01	-2.70E+00	-5.35E+00	-6.97E+01
3217	1	1.30E+00	9.50E-01	-1.10E+01	-1.02E+01	-7.41E+01
9032	1	1.30E+00	9.50E-01	-4.23E-01	-5.90E+00	-6.90E+01
6601	1	1.30E+00	9.50E-01	-1.05E+01	-1.28E+01	-6.54E+01
2764	1	1.30E+00	9.50E-01	-1.46E-01	-6.14E+00	-6.60E+01
7174	1	1.30E+00	9.50E-01	-3.47E+00	-1.32E+01	-6.61E+01
6171	1	1.30E+00	9.50E-01	-9.31E+00	-1.26E+01	-6.51E+01
1923	1	1.30E+00	9.50E-01	-1.24E+01	-9.00E+00	-6.97E+01
2568	1	1.30E+00	9.50E-01	-8.16E+00	-4.31E+00	-6.46E+01
3381	1	1.30E+00	9.50E-01	-1.40E+00	-5.91E+00	-6.83E+01
3937	1	1.30E+00	9.50E-01	-7.79E+00	-3.82E+00	-6.57E+01
8565	1	1.30E+00	9.50E-01	-6.96E+00	-4.24E+00	-6.48E+01
5740	1	1.30E+00	9.50E-01	-7.38E+00	-5.27E+00	-6.43E+01
3804	1	1.30E+00	9.50E-01	-1.30E+00	-4.87E+00	-6.77E+01
8828	1	1.30E+00	9.50E-01	-2.12E+00	-1.24E+01	-6.72E+01
5413	1	1.30E+00	9.50E-01	-5.33E+00	-1.30E+01	-6.45E+01
8470	1	1.30E+00	9.50E-01	-6.41E+00	-1.29E+01	-6.51E+01
4107	1	1.30E+00	9.50E-01	-1.27E+01	-9.34E+00	-7.38E+01
4764	1	1.30E+00	9.50E-01	-1.46E+00	-1.28E+01	-6.40E+01
2251	1	1.30E+00	9.50E-01	-3.17E+00	-1.24E+01	-7.36E+01
6626	1	1.30E+00	9.50E-01	-1.10E+01	-8.96E+00	-7.44E+01
4638	1	1.30E+00	9.50E-01	-4.14E+00	-1.31E+01	-6.41E+01
7062	1	1.30E+00	9.50E-01	-1.49E+00	-1.31E+01	-6.64E+01
3235	1	1.30E+00	9.50E-01	-2.37E-01	-1.32E+01	-6.38E+01
8689	1	1.30E+00	9.50E-01	-2.26E-01	-1.32E+01	-6.65E+01
4772	1	1.30E+00	9.50E-01	-9.97E+00	-8.39E+00	-7.40E+01
9260	1	1.30E+00	9.50E-01	-1.20E+01	-8.42E+00	-7.40E+01
5532	1	1.30E+00	9.50E-01	-5.11E+00	-1.29E+01	-7.43E+01
4583	1	1.30E+00	9.50E-01	-3.93E+00	-1.32E+01	-7.41E+01
3935	1	1.30E+00	9.50E-01	-6.47E+00	-1.33E+01	-6.62E+01
4582	1	1.30E+00	9.50E-01	-4.19E+00	-1.20E+01	-7.42E+01
8978	1	1.30E+00	9.50E-01	-2.52E+00	-9.02E+00	-7.43E+01
3616	1	1.30E+00	9.50E-01	-3.06E+00	-1.14E+01	-7.43E+01
4655	1	1.30E+00	9.50E-01	-1.32E+00	-1.32E+01	-6.52E+01
1553	1	1.30E+00	9.50E-01	-9.54E+00	-1.33E+01	-6.61E+01
7960	1	1.30E+00	9.50E-01	-3.29E+00	-1.33E+01	-6.49E+01
9284	1	1.30E+00	9.50E-01	-4.07E+00	-1.07E+01	-7.43E+01
1709	1	1.30E+00	9.50E-01	-1.10E+01	-7.74E+00	-7.43E+01
4387	1	1.30E+00	9.50E-01	-1.32E+01	-1.30E+01	-6.40E+01
9438	1	1.30E+00	9.50E-01	-1.33E+01	-9.77E+00	-7.09E+01
1129	1	1.30E+00	9.50E-01	-5.33E+00	-5.34E+00	-5.90E+01
7800	1	1.30E+00	9.50E-01	-5.89E+00	-5.01E+00	-5.52E+01
7752	1	1.30E+00	9.50E-01	-1.32E+00	-4.06E+00	-5.34E+01
4515	1	1.30E+00	9.50E-01	-7.57E+00	-9.96E+00	-5.74E+01
8738	1	1.30E+00	9.50E-01	-7.47E+00	-1.07E+01	-5.64E+01
4864	1	1.30E+00	9.50E-01	-1.06E+01	-3.43E+00	-6.03E+01
7924	1	1.30E+00	9.50E-01	-7.15E+00	-1.01E+01	-5.54E+01
6801	1	1.30E+00	9.50E-01	-6.11E+00	-1.20E+01	-5.49E+01
6489	1	1.30E+00	9.50E-01	-6.16E+00	-1.08E+01	-5.61E+01
795	1	1.30E+00	9.50E-01	-6.65E+00	-9.76E+00	-5.65E+01
1297	1	1.30E+00	9.50E-01	-5.56E+00	-1.33E+01	-5.43E+01
2794	1	1.30E+00	9.50E-01	-5.90E+00	-4.22E+00	-5.91E+01
4787	1	1.30E+00	9.50E-01	-4.64E+00	-4.82E+00	-5.50E+01
3473	1	1.30E+00	9.50E-01	-6.65E+00	-1.07E+01	-5.72E+01
4024	1	1.30E+00	9.50E-01	-6.13E+00	-1.06E+01	-5.49E+01
1121	1	1.30E+00	9.50E-01	-7.89E+00	-9.58E+00	-5.63E+01
2793	1	1.30E+00	9.50E-01	-7.20E+00	-5.18E+00	-6.03E+01
7420	1	1.30E+00	9.50E-01	-8.43E+00	-5.76E+00	-6.27E+01
704	1	1.30E+00	9.50E-01	-8.07E+00	-4.69E+00	-5.80E+01
4041	1	1.30E+00	9.50E-01	-1.41E+00	-2.32E+00	-5.46E+01
4547	1	1.30E+00	9.50E-01	-5.92E+00	-1.30E+01	-5.55E+01
8929	1	1.30E+00	9.50E-01	-6.57E-01	-2.11E+00	-5.36E+01
5757	1	1.30E+00	9.50E-01	-6.11E+00	-6.15E+00	-5.84E+01
3184	1	1.30E+00	9.50E-01	-1.19E+01	-4.85E+00	-5.98E+01
7540	1	1.30E+00	9.50E-01	-1.85E+00	-2.02E+00	-5.35E+01
6471	1	1.30E+00	9.50E-01	-5.75E+00	-4.57E+00	-5.71E+01
7187	1	1.30E+00	9.50E-01	-1.07E+01	-5.36E+00	-5.97E+01
3545	1	1.30E+00	9.50E-01	-3.92E+00	-1.30E+01	-5.55E+01
7439	1	1.30E+00	9.50E-01	-4.55E+00	-4.80E+00	-5.71E+01
2294	1	1.30E+00	9.50E-01	-6.98E+00	-4.64E+00	-5.74E+01
4318	1	1.30E+00	9.50E-01	-5.16E+00	-4.45E+00	-5.60E+01
6141	1	1.30E+00	9.50E-01	-6.12E+00	-9.43E+00	-5.54E+01
8452	1	1.30E+00	9.50E-01	-8.42E+00	-5.28E+00	-6.03E+01
6416	1	1.30E+00	9.50E-01	-7.46E+00	-3.08E+00	-5.99E+01
5584	1	1.30E+00	9.50E-01	-1.09E+01	-4.19E+00	-5.94E+01
4761	1	1.30E+00	9.50E-01	-7.00E+00	-1.13E+01	-5.54E+01
3213	1	1.30E+00	9.50E-01	-3.73E+00	-5.74E+00	-5.32E+01
8408	1	1.30E+00	9.50E-01	-4.01E-01	-4.42E+00	-5.41E+01
6562	1	1.30E+00	9.50E-01	-7.39E+00	-4.26E+00	-6.36E+01
7701	1	1.30E+00	9.50E-01	-5.21E+00	-1.01E+01	-5.58E+01
1560	1	1.30E+00	9.50E-01	-7.86E-01	-3.25E+00	-5.41E+01
1011	1	1.30E+00	9.50E-01	-3.19E+00	-6.13E+00	-5.43E+01
7657	1	1.30E+00	9.50E-01	-9.94E+00	-4.77E+00	-5.89E+01
3561	1	1.30E+00	9.50E-01	-4.25E+00	-1.19E+01	-5.58E+01
8080	1	1.30E+00	9.50E-01	-4.12E+00	-1.06E+01	-5.57E+01
198	1	1.30E+00	9.50E-01	-6.97E+00	-1.25E+01	-5.57E+01
4810	1	1.30E+00	9.50E-01	-5.16E+00	-1.12E+01	-5.52E+01
480	1	1.30E+00	9.50E-01	-5.75E+00	-1.19E+01	-5.60E+01
2047	1	1.30E+00	9.50E-01	-7.33E+00	-5.39E+00	-6.31E+01
9156	1	1.30E+00	9.50E-01	-9.61E+00	-1.25E+01	-6.32E+01
6912	1	1.30E+00	9.50E-01	-4.89E+00	-1.28E+01	-5.62E+01
7570	1	1.30E+00	9.50E-01	-4.99E+00	-1.11E+01	-5.64E+01
4616	1	1.30E+00	9.50E-01	-4.71E+00	-1.20E+01	-5.71E+01
5750	1	1.30E+00	9.50E-01	-5.77E+00	-1.15E+01	-5.72E+01
6747	1	1.30E+00	9.50E-01	-3.98E+00	-6.45E+00	-5.52E+01
977	1	1.30E+00	9.50E-01	-5.43E+00	-5.54E+00	-5.65E+01
2207	1	1.30E+00	9.50E-01	-4.30E+00	-5.42E+00	-5.60E+01
5913	1	1.30E+00	9.50E-01	-4.39E+00	-1.01E+01	-5.68E+01
5028	1	1.30E+00	9.50E-01	-3.85E+00	-1.12E+01	-5.68E+01
7889	1	1.30E+00	9.50E-01	-5.09E+00	-5.93E+00	-5.53E+01
1926	1	1.30E+00	9.50E-01	-6.57E+00	-5.27E+00	-5.93E+01
2846	1	1.30E+00	9.50E-01	-4.68E+00	-1.32E+01	-5.73E+01
3279	1	1.30E+00	9.50E-01	-3.76E+00	-1.27E+01	-5.66E+01
5676	1	1.30E+00	9.50E-01	-4.35E+00	-5.75E+00	-5.43E+01
4252	1	1.30E+00	9.50E-01	-2.55E+00	-5.54E+00	-5.35E+01
3720	1	1.30E+00	9.50E-01	-1.20E+01	-1.28E+01	-6.37E+01
1772	1	1.30E+00	9.50E-01	-2.95E+00	-6.68E+00	-5.32E+01
7360	1	1.30E+00	9.50E-01	-7.63E+00	-1.15E+01	-5.87E+01
7913	1	1.30E+00	9.50E-01	-3.52E+00	-5.34E+00	-5.51E+01
5835	1	1.30E+00	9.50E-01	-5.22E+00	-5.59E+00	-5.77E+01
3513	1	1.30E+00	9.50E-01	-6.91E+00	-4.17E+00	-5.97E+01
4560	1	1.30E+00	9.50E-01	-4.75E+00	-1.09E+01	-5.76E+01
5668	1	1.30E+00	9.50E-01	-4.97E+00	-1.24E+01	-5.50E+01
7502	1	1.30E+00	9.50E-01	-2.41E+00	-5.17E+00	-5.46E+01
7148	1	1.30E+00	9.50E-01	-6.73E+00	-3.26E+00	-5.89E+01
8558	1	1.30E+00	9.50E-01	-5.07E+00	-4.42E+00	-5.81E+01
4117	1	1.30E+00	9.50E-01	-5.58E+00	-1.02E+01	-5.70E+01
126	1	1.30E+00	9.50E-01	-1.22E+01	-4.42E+00	-6.09E+01
4342	1	1.30E+00	9.50E-01	-1.09E+01	-1.27E+01	-6.33E+01
2837	1	1.30E+00	9.50E-01	-7.71E+00	-1.12E+01	-5.75E+01
422	1	1.30E+00	9.50E-01	-7.08E+00	-8.81E+00	-5.58E+01
1241	1	1.30E+00	9.50E-01	-9.95E+00	-4.47E+00	-6.02E+01
1645	1	1.30E+00	9.50E-01	-9.05E+00	-4.09E+00	-5.84E+01
2445	1	1.30E+00	9.50E-01	-9.48E+00	-5.52E+00	-5.98E+01
1394	1	1.30E+00	9.50E-01	-5.81E+00	-1.27E+01	-5.70E+01
5811	1	1.30E+00	9.50E-01	-1.18E+01	-3.65E+00	-6.01E+01
5774	1	1.30E+00	9.50E-01	-7.00E+00	-1.05E+01	-5.84E+01
3832	1	1.30E+00	9.50E-01	-6.41E+00	-9.61E+00	-5.77E+01
6907	1	1.30E+00	9.50E-01	-7.22E+00	-8.85E+00	-5.70E+01
6983	1	1.30E+00	9.50E-01	-5.05E+00	-9.80E+00	-5.80E+01
5263	1	1.30E+00	9.50E-01	-1.46E+00	-5.16E+00	-5.39E+01
2194	1	1.30E+00	9.50E-01	-1.14E+01	-3.56E+00	-6.12E+01
2664	1	1.30E+00	9.50E-01	-3.47E+00	-4.90E+00	-5.40E+01
231	1	1.30E+00	9.50E-01	-8.39E+00	-4.98E+00	-6.36E+01
8906	1	1.30E+00	9.50E-01	-1.16E+00	-9.97E-01	-5.34E+01
5705	1	1.30E+00	9.50E-01	-6.83E+00	-1.18E+01	-5.66E+01
6813	1	1.30E+00	9.50E-01	-1.11E+01	-4.55E+00	-6.06E+01
799	1	1.30E+00	9.50E-01	-1.04E+01	-1.19E+01	-6.25E+01
6775	1	1.30E+00	9.50E-01	-9.96E+00	-5.98E+00	-5.88E+01
4339	1	1.30E+00	9.50E-01	-7.18E+00	-5.35E+00	-5.54E+01
9448	1	1.30E+00	9.50E-01	-8.87E+00	-5.33E+00	-5.87E+01
695	1	1.30E+00	9.50E-01	-9.80E+00	-3.61E+00	-5.93E+01
7787	1	1.30E+00	9.50E-01	-7.80E+00	-4.99E+00	-5.93E+01
483	1	1.30E+00	9.50E-01	-7.20E+00	-6.06E+00	-5.64E+01
7072	1	1.30E+00	9.50E-01	-6.23E+00	-6.07E+00	-5.57E+01
563	1	1.30E+00	9.50E-01	-6.14E+00	-4.98E+00	-5.82E+01
3341	1	1.30E+00	9.50E-01	-7.98E+00	-3.80E+00	-5.91E+01
3842	1	1.30E+00	9.50E-01	-8.22E+00	-5.87E+00	-5.57E+01
963	1	1.30E+00	9.50E-01	-7.74E+00	-4.98E+00	-5.65E+01
7040	1	1.30E+00	9.50E-01	-5.84E+00	-1.07E+01	-5.81E+01
2353	1	1.30E+00	9.50E-01	-6.51E+00	-4.99E+00	-5.63E+01
4360	1	1.30E+00	9.50E-01	-7.96E+00	-4.15E+00	-6.03E+01
6438	1	1.30E+00	9.50E-01	-1.51E+00	-4.16E+00	-5.46E+01
6113	1	1.30E+00	9.50E-01	-6.68E+00	-1.17E+01	-5.80E+01
2655	1	1.30E+00	9.50E-01	-6.16E+00	-3.78E+00	-5.79E+01
5896	1	1.30E+00	9.50E-01	-6.00E+00	-9.77E+00	-5.88E+01
1816	1	1.30E+00	9.50E-01	-8.90E+00	-4.45E+00	-5.96E+01
4258	1	1.30E+00	9.50E-01	-7.21E+00	-5.54E+00	-5.82E+01
51	1	1.30E+00	9.50E-01	-2.42E+00	-4.33E+00	-5.37E+01
5703	1	1.30E+00	9.50E-01	-6.71E+00	-1.30E+01	-5.46E+01
9422	1	1.30E+00	9.50E-01	-2.00E+00	-3.17E+00	-5.39E+01
3290	1	1.30E+00	9.50E-01	-7.05E+00	-4.35E+00	-5.86E+01
6238	1	1.30E+00	9.50E-01	-6.36E+00	-5.73E+00	-5.73E+01
7419	1	1.30E+00	9.50E-01	-7.30E+00	-1.34E+01	-5.35E+01
4945	1	1.30E+00	9.50E-01	-1.03E+01	-1.17E+01	-6.37E+01
2635	1	1.30E+00	9.50E-01	-6.54E+00	-7.57E+00	-4.74E+01
7266	1	1.30E+00	9.50E-01	-7.73E+00	-2.18E+00	-4.63E+01
5972	1	1.30E+00	9.50E-01	-4.60E+00	-2.85E+00	-5.09E+01
5845	1	1.30E+00	9.50E-01	-3.53E+00	-1.04E+00	-5.09E+01
228	1	1.30E+00	9.50E-01	-6.86E+00	-8.53E+00	-4.27E+01
5881	1	1.30E+00	9.50E-01	-1.07E+01	-8.83E+00	-4.80E+01
1114	1	1.30E+00	9.50E-01	-9.81E+00	-6.99E+00	-4.47E+01
6829	1	1.30E+00	9.50E-01	-3.12E+00	-4.68E+00	-5.28E+01
1916	1	1.30E+00	9.50E-01	-7.72E+00	-7.59E+00	-4.77E+01
6571	1	1.30E+00	9.50E-01	-8.58E+00	-7.16E+00	-4.48E+01
3325	1	1.30E+00	9.50E-01	-6.27E+00	-4.94E+00	-4.45E+01
5050	1	1.30E+00	9.50E-01	-1.02E+01	-6.79E+00	-4.59E+01
4216	1	1.30E+00	9.50E-01	-8.21E+00	-8.67E+00	-4.73E+01
2463	1	1.30E+00	9.50E-01	-4.52E+00	-1.70E+00	-5.05E+01
3814	1	1.30E+00	9.50E-01	-5.01E+00	-7.07E+00	-4.48E+01
2358	1	1.30E+00	9.50E-01	-6.81E+00	-5.71E+00	-4.64E+01
1110	1	1.30E+00	9.50E-01	-1.08E+01	-7.40E+00	-4.40E+01
3558	1	1.30E+00	9.50E-01	-1.75E-01	-3.33E+00	-5.19E+01
2272	1	1.30E+00	9.50E-01	-6.67E+00	-9.74E+00	-4.26E+01
5207	1	1.30E+00	9.50E-01	-7.03E+00	-2.73E-01	-4.87E+01
1076	1	1.30E+00	9.50E-01	-8.35E+00	-7.62E+00	-4.66E+01
3859	1	1.30E+00	9.50E-01	-1.06E+00	-1.90E+00	-5.25E+01
1750	1	1.30E+00	9.50E-01	-2.47E+00	-1.57E+00	-5.06E+01
9092	1	1.30E+00	9.50E-01	-9.21E+00	-7.48E+00	-4.58E+01
786	1	1.30E+00	9.50E-01	-2.36E-01	-3.69E+00	-5.31E+01
3049	1	1.30E+00	9.50E-01	-1.17E+01	-7.38E+00	-4.32E+01
4643	1	1.30E+00	9.50E-01	-8.28E+00	-6.61E+00	-4.60E+01
1764	1	1.30E+00	9.50E-01	-1.30E+01	-4.65E+00	-4.60E+01
8974	1	1.30E+00	9.50E-01	-1.29E+01	-7.61E+00	-4.51E+01
6889	1	1.30E+00	9.50E-01	-1.12E+01	-8.13E+00	-4.70E+01
633	1	1.30E+00	9.50E-01	-1.04E+01	-5.77E+00	-4.53E+01
5670	1	1.30E+00	9.50E-01	-1.05E-01	-3.41E-02	-5.26E+01
2309	1	1.30E+00	9.50E-01	-1.10E+01	-5.03E+00	-4.60E+01
729	1	1.30E+00	9.50E-01	-7.90E+00	-5.74E+00	-4.68E+01
6208	1	1.30E+00	9.50E-01	-1.11E+01	-8.64E+00	-4.59E+01
4782	1	1.30E+00	9.50E-01	-7.49E+00	-7.07E-01	-4.67E+01
2288	1	1.30E+00	9.50E-01	-6.16E+00	-5.84E+00	-4.53E+01
1761	1	1.30E+00	9.50E-01	-4.96E+00	-5.88E+00	-4.52E+01
5311	1	1.30E+00	9.50E-01	-1.10E+01	-6.75E+00	-4.50E+01
1141	1	1.30E+00	9.50E-01	-7.39E+00	-7.12E+00	-4.45E+01
1378	1	1.30E+00	9.50E-01	-6.89E+00	-6.01E+00	-4.44E+01
1735	1	1.30E+00	9.50E-01	-2.60E+00	-7.66E-02	-4.88E+01
3949	1	1.30E+00	9.50E-01	-1.10E+00	-4.01E+00	-5.22E+01
6091	1	1.30E+00	9.50E-01	-1.07E+01	-6.92E+00	-4.70E+01
2840	1	1.30E+00	9.50E-01	-1.19E+01	-6.75E+00	-4.42E+01
1724	1	1.30E+00	9.50E-01	-2.18E+00	-2.43E+00	-5.24E+01
1250	1	1.30E+00	9.50E-01	-7.11E+00	-8.62E+00	-4.78E+01
8296	1	1.30E+00	9.50E-01	-6.13E+00	-8.88E+00	-4.37E+01
5358	1	1.30E+00	9.50E-01	-6.74E+00	-8.07E+00	-4.50E+01
7680	1	1.30E+00	9.50E-01	-6.93E+00	-7.97E+00	-4.38E+01
1481	1	1.30E+00	9.50E-01	-4.89E+00	-8.26E+00	-4.35E+01
8847	1	1.30E+00	9.50E-01	-5.91E+00	-7.82E+00	-4.30E+01
5499	1	1.30E+00	9.50E-01	-5.60E+00	-7.90E+00	-4.55E+01
3452	1	1.30E+00	9.50E-01	-2.11E-01	-1.27E+01	-4.55E+01
2472	1	1.30E+00	9.50E-01	-5.65E+00	-6.19E+00	-4.43E+01
1214	1	1.30E+00	9.50E-01	-4.11E+00	-7.42E+00	-4.40E+01
4326	1	1.30E+00	9.50E-01	-3.94E+00	-7.72E+00	-4.29E+01
1947	1	1.30E+00	9.50E-01	-6.41E+00	-6.90E+00	-4.37E+01
3397	1	1.30E+00	9.50E-01	-3.35E-01	-1.13E+01	-4.76E+01
7691	1	1.30E+00	9.50E-01	-5.15E+00	-7.04E+00	-4.36E+01
3455	1	1.30E+00	9.50E-01	-6.20E+00	-5.63E+00	-4.34E+01
8705	1	1.30E+00	9.50E-01	-3.57E+00	-2.19E+00	-4.88E+01
3001	1	1.30E+00	9.50E-01	-5.58E+00	-5.52E+00	-4.63E+01
701	1	1.30E+00	9.50E-01	-3.94E+00	-6.52E+00	-4.32E+01
1430	1	1.30E+00	9.50E-01	-1.27E+00	-2.86E+00	-5.17E+01
3324	1	1.30E+00	9.50E-01	-1.13E+01	-7.43E+00	-4.60E+01
8715	1	1.30E+00	9.50E-01	-2.04E-01	-1.81E+00	-5.03E+01
4302	1	1.30E+00	9.50E-01	-6.41E-01	-4.93E+00	-5.30E+01
5348	1	1.30E+00	9.50E-01	-1.12E+01	-6.24E+00	-4.60E+01
8618	1	1.30E+00	9.50E-01	-9.27E+00	-8.34E+00	-4.67E+01
9053	1	1.30E+00	9.50E-01	-7.83E+00	-7.71E-01	-4.79E+01
6131	1	1.30E+00	9.50E-01	-4.63E-01	-1.10E+01	-4.88E+01
6648	1	1.30E+00	9.50E-01	-7.27E+00	-8.15E+00	-4.67E+01
1006	1	1.30E+00	9.50E-01	-4.64E+00	-3.29E-01	-4.88E+01
2502	1	1.30E+00	9.50E-01	-2.22E+00	-3.65E+00	-5.27E+01
2812	1	1.30E+00	9.50E-01	-6.92E+00	-2.80E+00	-4.70E+01
8516	1	1.30E+00	9.50E-01	-5.03E+00	-5.92E+00	-4.31E+01
3738	1	1.30E+00	9.50E-01	-3.50E+00	-2.29E+00	-5.09E+01
6984	1	1.30E+00	9.50E-01	-1.29E+01	-6.85E+00	-4.34E+01
9245	1	1.30E+00	9.50E-01	-1.14E+01	-5.54E+00	-4.70E+01
1480	1	1.30E+00	9.50E-01	-1.01E+01	-7.88E+00	-4.75E+01
6242	1	1.30E+00	9.50E-01	-2.36E+00	-2.64E+00	-5.12E+01
3885	1	1.30E+00	9.50E-01	-1.64E+00	-1.69E+00	-5.15E+01
951	1	1.30E+00	9.50E-01	-6.43E+00	-5.17E-02	-4.66E+01
6159	1	1.30E+00	9.50E-01	-8.45E+00	-6.67E+00	-4.74E+01
4391	1	1.30E+00	9.50E-01	-2.86E+00	-1.65E+00	-5.17E+01
7533	1	1.30E+00	9.50E-01	-8.39E+00	-4.19E+00	-4.57E+01
650	1	1.30E+00	9.50E-01	-9.21E+00	-6.19E+00	-4.54E+01
8784	1	1.30E+00	9.50E-01	-7.20E+00	-3.90E+00	-4.74E+01
5006	1	1.30E+00	9.50E-01	-6.35E+00	-4.75E+00	-4.58E+01
778	1	1.30E+00	9.50E-01	-6.55E+00	-7.42E+00	-4.60E+01
2926	1	1.30E+00	9.50E-01	-8.01E+00	-3.02E+00	-4.53E+01
7303	1	1.30E+00	9.50E-01	-9.09E+00	-5.98E+00	-4.66E+01
908	1	1.30E+00	9.50E-01	-2.27E-02	-1.21E+01	-4.85E+01
2999	1	1.30E+00	9.50E-01	-3.56E+00	-9.39E-01	-4.89E+01
6708	1	1.30E+00	9.50E-01	-7.27E+00	-1.74E+00	-4.74E+01
710	1	1.30E+00	9.50E-01	-6.85E+00	-2.85E+00	-4.57E+01
492	1	1.30E+00	9.50E-01	-6.14E+00	-6.56E+00	-4.69E+01
1596	1	1.30E+00	9.50E-01	-6.12E-02	-1.28E+00	-5.29E+01
95	1	1.30E+00	9.50E-01	-8.08E+00	-2.70E+00	-4.73E+01
2493	1	1.30E+00	9.50E-01	-8.12E+00	-1.91E+00	-4.83E+01
2003	1	1.30E+00	9.50E-01	-4.14E+00	-2.66E+00	-4.98E+01
6652	1	1.30E+00	9.50E-01	-7.17E+00	-2.70E+00	-4.82E+01
6535	1	1.30E+00	9.50E-01	-9.49E+00	-7.08E+00	-4.69E+01
1172	1	1.30E+00	9.50E-01	-7.21E+00	-3.99E+00	-4.54E+01
1473	1	1.30E+00	9.50E-01	-6.42E+00	-8.67E+00	-4.60E+01
5513	1	1.30E+00	9.50E-01	-7.16E+00	-6.50E+00	-4.56E+01
5483	1	1.30E+00	9.50E-01	-3.42E-01	-2.06E+00	-5.16E+01
101	1	1.30E+00	9.50E-01	-1.16E+01	-5.68E+00	-4.50E+01
839	1	1.30E+00	9.50E-01	-2.07E+00	-1.20E+00	-5.26E+01
6696	1	1.30E+00	9.50E-01	-1.03E+01	-8.96E+00	-4.68E+01
185	1	1.30E+00	9.50E-01	-5.72E+00	-8.97E+00	-4.26E+01
860	1	1.30E+00	9.50E-01	-1.03E+01	-5.80E+00	-4.66E+01
5160	1	1.30E+00	9.50E-01	-6.12E+00	-8.69E+00	-4.71E+01
9280	1	1.30E+00	9.50E-01	-1.03E+01	-7.88E+00	-4.63E+01
3986	1	1.30E+00	9.50E-01	-5.85E+00	-5.87E-01	-4.86E+01
8001	1	1.30E+00	9.50E-01	-1.31E+01	-6.53E+00	-4.46E+01
1120	1	1.30E+00	9.50E-01	-6.54E+00	-3.78E+00	-4.64E+01
6244	1	1.30E+00	9.50E-01	-1.05E+01	-7.85E+00	-4.51E+01
46	1	1.30E+00	9.50E-01	-4.17E+00	-6.62E-01	-4.99E+01
7710	1	1.30E+00	9.50E-01	-1.22E+01	-5.55E+00	-4.60E+01
4226	1	1.30E+00	9.50E-01	-6.25E+00	-6.98E+00	-4.49E+01
4490	1	1.30E+00	9.50E-01	-8.42E+00	-1.51E+00	-4.71E+01
8704	1	1.30E+00	9.50E-01	-6.96E+00	-1.50E+00	-4.85E+01
1811	1	1.30E+00	9.50E-01	-7.36E+00	-6.87E+00	-4.67E+01
7709	1	1.30E+00	9.50E-01	-3.46E+00	-1.67E+00	-4.98E+01
7445	1	1.30E+00	9.50E-01	-5.58E+00	-7.70E+00	-4.67E+01
5695	1	1.30E+00	9.50E-01	-1.20E+01	-4.54E+00	-4.53E+01
8212	1	1.30E+00	9.50E-01	-1.88E+00	-4.86E+00	-5.27E+01
7438	1	1.30E+00	9.50E-01	-6.64E+00	-7.39E-01	-4.76E+01
1338	1	1.30E+00	9.50E-01	-1.22E+01	-6.69E+00	-4.54E+01
6552	1	1.30E+00	9.50E-01	-1.19E+01	-4.51E+00	-4.66E+01
4512	1	1.30E+00	9.50E-01	-1.25E+01	-7.85E+00	-4.40E+01
5441	1	1.30E+00	9.50E-01	-5.92E+00	-6.63E+00	-4.27E+01
4794	1	1.30E+00	9.50E-01	-5.53E+00	-6.74E+00	-4.59E+01
4953	1	1.30E+00	9.50E-01	-8.36E+00	-5.39E+00	-4.58E+01
4289	1	1.30E+00	9.50E-01	-5.85E+00	-8.92E+00	-4.49E+01
5634	1	1.30E+00	9.50E-01	-6.95E+00	-7.31E+00	-4.27E+01
2650	1	1.30E+00	9.50E-01	-4.54E+00	-1.58E+00	-4.92E+01
8009	1	1.30E+00	9.50E-01	-8.93E+00	-7.76E+00	-4.77E+01
7311	1	1.30E+00	9.50E-01	-7.68E+00	-7.60E+00	-4.56E+01
9196	1	1.30E+00	9.50E-01	-7.28E+00	-5.26E+00	-4.53E+01
958	1	1.30E+00	9.50E-01	-1.20E+00	-2.98E+00	-5.29E+01
3555	1	1.30E+00	9.50E-01	-9.73E-01	-7.82E-01	-5.22E+01
4687	1	1.30E+00	9.50E-01	-6.36E+00	-4.81E+00	-4.70E+01
9270	1	1.30E+00	9.50E-01	-5.28E+00	-4.72E+00	-4.53E+01
4943	1	1.30E+00	9.50E-01	-4.43E+00	-6.20E+00	-4.42E+01
2312	1	1.30E+00	9.50E-01	-2.90E+00	-6.24E-01	-4.99E+01
8673	1	1.30E+00	9.50E-01	-5.11E+00	-5.15E+00	-4.41E+01
6315	1	1.30E+00	9.50E-01	-7.70E-01	-1.01E+00	-5.10E+01
7714	1	1.30E+00	9.50E-01	-9.47E+00	-8.89E+00	-4.78E+01
2860	1	1.30E+00	9.50E-01	-9.54E+00	-5.06E+00	-4.59E+01
47	1	1.30E+00	9.50E-01	-1.17E+01	-7.75E+00	-4.49E+01
4162	1	1.30E+00	9.50E-01	-7.44E+00	-4.66E+00	-4.64E+01
1917	1	1.30E+00	9.50E-01	-8.05E+00	-6.11E+00	-4.49E+01
1664	1	1.30E+00	9.50E-01	-4.74E+00	-8.29E+00	-4.47E+01
6867	1	1.30E+00	9.50E-01	-1.14E+01	-8.42E+00	-4.39E+01
732	1	1.30E+00	9.50E-01	-7.74E+00	-3.46E+00	-4.64E+01
6942	1	1.30E+00	9.50E-01	-5.79E+00	-7.85E+00	-4.42E+01
4319	1	1.30E+00	9.50E-01	-5.42E+00	-4.26E+00	-4.64E+01
8422	1	1.30E+00	9.50E-01	-7.13E+00	-9.34E+00	-4.68E+01
7595	1	1.30E+00	9.50E-01	-5.97E+00	-3.69E+00	-4.54E+01
932	1	1.30E+00	9.50E-01	-2.77E+00	-9.05E+00	-3.68E+01
6629	1	1.30E+00	9.50E-01	-3.41E+00	-1.25E+01	-3.58E+01
420	1	1.30E+00	9.50E-01	-5.32E+00	-1.15E+01	-3.60E+01
3826	1	1.30E+00	9.50E-01	-8.15E+00	-5.68E+00	-3.81E+01
2724	1	1.30E+00	9.50E-01	-4.23E+00	-1.14E+01	-3.42E+01
5720	1	1.30E+00	9.50E-01	-5.87E+00	-5.88E+00	-4.07E+01
4979	1	1.30E+00	9.50E-01	-4.71E+00	-1.10E+01	-3.82E+01
7995	1	1.30E+00	9.50E-01	-2.51E+00	-1.17E+01	-3.54E+01
3658	1	1.30E+00	9.50E-01	-3.66E+00	-1.13E+01	-3.53E+01
2606	1	1.30E+00	9.50E-01	-4.80E+00	-9.65E+00	-3.49E+01
86	1	1.30E+00	9.50E-01	-4.14E+00	-9.43E+00	-3.70E+01
6123	1	1.30E+00	9.50E-01	-4.04E+00	-1.02E+01	-3.42E+01
7352	1	1.30E+00	9.50E-01	-5.17E+00	-8.99E+00	-3.80E+01
2592	1	1.30E+00	9.50E-01	-3.38E+00	-1.22E+01	-3.46E+01
8510	1	1.30E+00	9.50E-01	-8.04E+00	-3.76E+00	-3.87E+01
1388	1	1.30E+00	9.50E-01	-6.65E+00	-1.18E+01	-3.40E+01
8168	1	1.30E+00	9.50E-01	-6.87E+00	-8.29E+00	-3.39E+01
6216	1	1.30E+00	9.50E-01	-5.35E+00	-1.17E+01	-3.38E+01
3571	1	1.30E+00	9.50E-01	-4.89E+00	-8.48E+00	-3.47E+01
3585	1	1.30E+00	9.50E-01	-7.71E+00	-1.01E+01	-3.47E+01
3267	1	1.30E+00	9.50E-01	-8.46E+00	-1.09E+01	-3.39E+01
9231	1	1.30E+00	9.50E-01	-9.17E+00	-6.72E+00	-3.26E+01
4418	1	1.30E+00	9.50E-01	-3.52E+00	-6.85E+00	-4.21E+01
8657	1	1.30E+00	9.50E-01	-2.93E+00	-9.88E+00	-3.45E+01
8856	1	1.30E+00	9.50E-01	-3.93E+00	-7.88E+00	-4.16E+01
2387	1	1.30E+00	9.50E-01	-2.99E+00	-9.31E+00	-3.57E+01
6538	1	1.30E+00	9.50E-01	-3.79E+00	-9.05E+00	-3.47E+01
2137	1	1.30E+00	9.50E-01	-1.95E+00	-1.06E+01	-3.42E+01
235	1	1.30E+00	9.50E-01	-8.57E+00	-7.68E+00	-3.31E+01
3589	1	1.30E+00	9.50E-01	-8.00E+00	-1.07E+01	-3.27E+01
6169	1	1.30E+00	9.50E-01	-4.29E+00	-5.90E+00	-4.22E+01
1346	1	1.30E+00	9.50E-01	-4.25E+00	-8.96E+00	-3.58E+01
6285	1	1.30E+00	9.50E-01	-2.72E+00	-1.06E+01	-3.55E+01
4215	1	1.30E+00	9.50E-01	-3.03E+00	-1.11E+01	-3.44E+01
219	1	1.30E+00	9.50E-01	-6.74E+00	-6.88E+00	-3.23E+01
2008	1	1.30E+00	9.50E-01	-8.11E+00	-9.81E+00	-3.35E+01
2704	1	1.30E+00	9.50E-01	-4.89E+00	-9.94E+00	-3.61E+01
5734	1	1.30E+00	9.50E-01	-3.12E+00	-8.24E+00	-4.08E+01
1534	1	1.30E+00	9.50E-01	-7.95E+00	-7.77E+00	-3.42E+01
5415	1	1.30E+00	9.50E-01	-3.83E+00	-5.84E+00	-3.92E+01
4558	1	1.30E+00	9.50E-01	-5.00E+00	-9.96E+00	-4.09E+01
6695	1	1.30E+00	9.50E-01	-9.50E-01	-9.98E+00	-3.45E+01
5520	1	1.30E+00	9.50E-01	-4.32E+00	-9.81E+00	-3.81E+01
943	1	1.30E+00	9.50E-01	-7.46E+00	-7.84E+00	-3.26E+01
8129	1	1.30E+00	9.50E-01	-6.06E+00	-7.34E+00	-3.41E+01
7777	1	1.30E+00	9.50E-01	-7.17E-01	-2.28E+00	-3.25E+01
850	1	1.30E+00	9.50E-01	-1.33E+01	-3.08E+00	-3.22E+01
689	1	1.30E+00	9.50E-01	-3.28E+00	-1.01E+01	-3.65E+01
7784	1	1.30E+00	9.50E-01	-9.36E-01	-1.07E+01	-3.63E+01
4065	1	1.30E+00	9.50E-01	-7.41E+00	-4.85E+00	-3.87E+01
5847	1	1.30E+00	9.50E-01	-2.01E+00	-1.12E+01	-3.64E+01
2572	1	1.30E+00	9.50E-01	-3.05E+00	-5.80E+00	-4.24E+01
2357	1	1.30E+00	9.50E-01	-4.93E+00	-8.13E+00	-4.23E+01
2271	1	1.30E+00	9.50E-01	-6.07E+00	-8.29E+00	-4.07E+01
1570	1	1.30E+00	9.50E-01	-8.18E+00	-4.50E+00	-3.78E+01
82	1	1.30E+00	9.50E-01	-3.47E+00	-1.06E+01	-3.85E+01
8182	1	1.30E+00	9.50E-01	-2.89E-01	-1.04E+01	-3.73E+01
9210	1	1.30E+00	9.50E-01	-5.86E-01	-1.10E+01	-3.83E+01
3703	1	1.30E+00	9.50E-01	-6.82E+00	-9.25E+00	-3.51E+01
2146	1	1.30E+00	9.50E-01	-1.01E+00	-9.56E+00	-3.69E+01
3109	1	1.30E+00	9.50E-01	-5.94E+00	-1.09E+01	-3.78E+01
6551	1	1.30E+00	9.50E-01	-8.64E-01	-9.77E+00	-3.81E+01
2398	1	1.30E+00	9.50E-01	-1.46E+00	-1.07E+01	-3.74E+01
7068	1	1.30E+00	9.50E-01	-6.14E+00	-9.71E+00	-3.75E+01